   22   22    1    1
  0.9481808E+01  0.7473438E-09  0.7432579E-09  0.3755380E-09  0.5000000E-15
  1.000000000000000E-004
  CAR 
 SG29HfO2                                
  120  140  160
 
  0.0000000E+00  0.0000000E+00  0.0000000E+00  0.7142857E-02
   1      -26.245722
   2      -26.241396
   3      -26.231520
   4      -26.227120
   5      -26.205785
   6      -26.204688
   7      -19.647788
   8      -19.379409
   9      -19.377905
  10      -19.346387
  11      -18.051149
  12      -17.940580
  13      -14.384839
  14      -14.054058
  15      -14.053115
  16      -13.854776
  17      -12.332275
  18      -12.307772
  19      -12.306863
  20      -12.221064
  21       -6.835480
  22       -6.243740
  23       -6.220414
  24       -5.869357
  25       -5.833759
  26       -4.910078
  27       -4.760324
  28       -4.689520
  29       -4.416274
  30       -3.832862
  31       -3.621866
  32       -2.906657
  33       -2.726106
  34       -2.715117
  35       -2.387558
  36       -2.358673
  37       -2.075131
  38       -1.842835
  39       -1.786750
  40       -1.658518
  41       -1.117952
  42       -0.822082
  43       -0.587965
  44       -0.470066
  45       -0.345679
  46        0.048576
  47        0.484773
  48        0.486350
  49        0.551473
  50        1.443429
  51        1.494732
  52        2.296654
  53        2.390753
  54        2.441480
  55        2.710877
  56        2.736499
  57        2.764533
  58        3.001457
  59        3.313959
  60        3.754643
  61        4.149894
  62        5.625275
  63        7.554846
  64        7.607845
  65        8.007100
  66        8.112054
  67        8.143981
  68        8.832827
  69        8.836085
  70        9.149843
  71        9.238241
  72        9.696600
  73        9.741429
  74        9.770394
  75       10.011334
  76       10.706680
  77       10.781385
  78       11.275225
  79       11.592690
  80       11.644428
  81       11.943738
  82       12.345849
  83       12.816444
  84       13.595114
  85       13.668350
  86       14.192652
  87       14.301628
  88       14.309374
  89       14.375883
  90       14.561219
  91       15.158569
  92       15.754904
  93       15.760043
  94       15.785339
  95       16.070071
  96       16.451507
  97       17.001332
  98       17.112920
  99       17.164050
 100       17.800325
 101       17.864144
 102       18.128603
 103       18.553246
 104       18.801441
 105       19.048597
 106       19.074707
 107       19.107804
 108       19.201027
 109       19.520444
 110       19.597978
 111       19.679299
 112       19.683552
 113       19.927516
 114       19.928127
 115       19.931121
 116       20.096576
 117       20.293812
 118       20.940967
 119       20.990521
 120       21.234879
 121       21.935677
 122       22.133934
 123       22.788389
 124       23.470220
 125       23.660447
 126       24.045625
 127       24.688642
 128       24.733844
 129       24.736947
 130       24.773297
 131       24.835397
 132       25.544231
 133       25.545699
 134       25.938570
 135       26.058062
 136       26.089868
 137       26.421405
 138       26.457218
 139       26.526598
 140       26.640382
 141       27.007511
 142       27.350523
 143       27.492339
 144       27.594407
 145       27.596103
 146       27.636431
 147       27.717852
 148       27.787657
 149       28.124443
 150       28.201286
 151       28.245238
 152       28.609270
 153       29.756629
 154       31.155402
 155       31.215401
 156       31.575506
 157       31.595713
 158       32.138230
 159       32.216700
 160       32.725418
 
  0.0000000E+00  0.0000000E+00  0.2631579E-01  0.7142857E-02
   1      -26.245576
   2      -26.241252
   3      -26.231430
   4      -26.227029
   5      -26.206393
   6      -26.205299
   7      -19.642773
   8      -19.374701
   9      -19.373206
  10      -19.341406
  11      -18.050912
  12      -17.940244
  13      -14.412636
  14      -14.093334
  15      -14.092532
  16      -13.896026
  17      -12.308182
  18      -12.269801
  19      -12.269057
  20      -12.181521
  21       -6.842125
  22       -6.258150
  23       -6.234800
  24       -5.880650
  25       -5.817511
  26       -4.901058
  27       -4.751771
  28       -4.676492
  29       -4.415383
  30       -3.826308
  31       -3.615301
  32       -2.927434
  33       -2.722478
  34       -2.720923
  35       -2.376069
  36       -2.345959
  37       -2.132080
  38       -1.843062
  39       -1.783712
  40       -1.592795
  41       -1.127740
  42       -0.800227
  43       -0.588353
  44       -0.469236
  45       -0.330584
  46        0.069091
  47        0.478556
  48        0.478843
  49        0.547521
  50        1.436940
  51        1.487613
  52        2.219485
  53        2.349250
  54        2.366645
  55        2.759954
  56        2.802077
  57        2.816048
  58        2.881459
  59        3.432480
  60        3.735832
  61        4.171286
  62        5.634710
  63        7.497605
  64        7.622498
  65        8.054804
  66        8.105596
  67        8.133441
  68        8.825181
  69        8.830315
  70        9.142484
  71        9.227524
  72        9.687021
  73        9.741928
  74        9.769872
  75       10.026726
  76       10.724068
  77       10.798890
  78       11.253874
  79       11.578731
  80       11.630599
  81       11.948239
  82       12.355057
  83       12.829394
  84       13.518557
  85       13.662789
  86       14.220548
  87       14.257311
  88       14.306174
  89       14.381848
  90       14.604366
  91       15.188217
  92       15.754908
  93       15.760157
  94       15.798348
  95       16.083615
  96       16.456146
  97       17.017374
  98       17.114640
  99       17.125909
 100       17.807773
 101       17.867979
 102       18.133422
 103       18.532743
 104       18.786969
 105       19.041614
 106       19.098250
 107       19.131581
 108       19.208313
 109       19.523451
 110       19.572222
 111       19.663735
 112       19.669148
 113       19.892194
 114       19.898043
 115       19.900666
 116       20.087938
 117       20.325242
 118       20.947192
 119       20.984449
 120       21.247631
 121       21.934734
 122       22.155542
 123       22.808327
 124       23.402244
 125       23.470625
 126       24.010686
 127       24.677238
 128       24.749109
 129       24.752037
 130       24.782278
 131       25.055461
 132       25.540708
 133       25.549743
 134       25.943984
 135       26.093551
 136       26.102382
 137       26.414642
 138       26.450048
 139       26.551950
 140       26.564517
 141       27.022813
 142       27.236530
 143       27.360405
 144       27.449387
 145       27.621962
 146       27.625484
 147       27.821145
 148       27.939824
 149       28.216506
 150       28.264937
 151       28.393265
 152       28.620732
 153       29.804205
 154       31.176367
 155       31.194653
 156       31.599062
 157       31.621926
 158       32.139534
 159       32.228736
 160       32.530585
 
  0.0000000E+00  0.0000000E+00  0.5263158E-01  0.7142857E-02
   1      -26.245140
   2      -26.240816
   3      -26.231159
   4      -26.226761
   5      -26.208187
   6      -26.207134
   7      -19.627711
   8      -19.360602
   9      -19.359096
  10      -19.326527
  11      -18.050174
  12      -17.939160
  13      -14.492135
  14      -14.201797
  15      -14.201402
  16      -14.009392
  17      -12.239597
  18      -12.165030
  19      -12.164863
  20      -12.073352
  21       -6.862101
  22       -6.300588
  23       -6.277158
  24       -5.914380
  25       -5.768938
  26       -4.874020
  27       -4.726094
  28       -4.637521
  29       -4.412788
  30       -3.806534
  31       -3.595507
  32       -2.986317
  33       -2.743200
  34       -2.705473
  35       -2.342557
  36       -2.308659
  37       -2.247382
  38       -1.843817
  39       -1.774432
  40       -1.451313
  41       -1.154025
  42       -0.737876
  43       -0.589582
  44       -0.466718
  45       -0.286434
  46        0.126991
  47        0.456093
  48        0.459720
  49        0.535590
  50        1.417748
  51        1.466486
  52        2.063523
  53        2.186712
  54        2.296956
  55        2.674977
  56        2.747270
  57        2.961766
  58        2.979459
  59        3.634499
  60        3.680345
  61        4.233303
  62        5.662964
  63        7.365810
  64        7.665624
  65        8.086449
  66        8.102070
  67        8.158195
  68        8.802499
  69        8.813201
  70        9.120736
  71        9.195645
  72        9.658445
  73        9.743404
  74        9.768417
  75       10.071404
  76       10.775817
  77       10.851031
  78       11.191642
  79       11.537698
  80       11.589872
  81       11.959583
  82       12.383100
  83       12.869687
  84       13.339739
  85       13.639314
  86       14.139139
  87       14.267488
  88       14.305621
  89       14.398906
  90       14.720325
  91       15.264907
  92       15.754924
  93       15.760572
  94       15.836648
  95       16.123623
  96       16.470026
  97       17.013147
  98       17.064783
  99       17.118625
 100       17.829615
 101       17.879199
 102       18.145058
 103       18.474010
 104       18.739091
 105       19.020951
 106       19.165391
 107       19.199531
 108       19.230678
 109       19.491480
 110       19.537180
 111       19.618303
 112       19.627957
 113       19.778741
 114       19.824994
 115       19.831615
 116       20.062152
 117       20.401088
 118       20.965043
 119       20.965197
 120       21.285631
 121       21.931610
 122       22.219096
 123       22.866934
 124       22.886888
 125       23.464675
 126       23.912284
 127       24.641125
 128       24.793163
 129       24.797773
 130       24.804630
 131       25.431086
 132       25.542993
 133       25.565200
 134       25.983731
 135       26.102958
 136       26.189502
 137       26.387528
 138       26.397069
 139       26.428519
 140       26.627414
 141       26.844972
 142       27.067418
 143       27.365931
 144       27.390933
 145       27.568867
 146       27.674836
 147       28.005843
 148       28.165399
 149       28.260696
 150       28.325240
 151       28.654853
 152       28.859702
 153       29.944692
 154       31.132236
 155       31.240057
 156       31.644790
 157       31.680239
 158       32.045434
 159       32.167463
 160       32.270109
 
  0.0000000E+00  0.0000000E+00  0.7894737E-01  0.7142857E-02
   1      -26.244427
   2      -26.240104
   3      -26.230714
   4      -26.226316
   5      -26.211118
   6      -26.210134
   7      -19.602655
   8      -19.337117
   9      -19.335608
  10      -19.301744
  11      -18.049043
  12      -17.937338
  13      -14.614132
  14      -14.360041
  15      -14.359996
  16      -14.173547
  17      -12.135342
  18      -12.013628
  19      -12.012945
  20      -11.918011
  21       -6.895954
  22       -6.369169
  23       -6.345655
  24       -5.969955
  25       -5.688843
  26       -4.829173
  27       -4.683714
  28       -4.573076
  29       -4.409059
  30       -3.773336
  31       -3.562558
  32       -3.075199
  33       -2.774133
  34       -2.679796
  35       -2.370152
  36       -2.289984
  37       -2.249016
  38       -1.845397
  39       -1.758472
  40       -1.285777
  41       -1.189484
  42       -0.643282
  43       -0.591706
  44       -0.462514
  45       -0.216363
  46        0.213512
  47        0.417234
  48        0.427857
  49        0.515407
  50        1.386427
  51        1.431918
  52        1.889917
  53        2.012234
  54        2.188032
  55        2.453541
  56        2.729393
  57        3.132062
  58        3.166526
  59        3.590800
  60        3.848696
  61        4.330812
  62        5.709816
  63        7.201191
  64        7.734852
  65        8.050599
  66        8.055264
  67        8.276126
  68        8.765538
  69        8.785314
  70        9.085538
  71        9.143362
  72        9.611321
  73        9.745708
  74        9.766255
  75       10.141098
  76       10.860631
  77       10.936538
  78       11.093591
  79       11.472082
  80       11.524546
  81       11.972050
  82       12.431171
  83       12.940959
  84       13.119984
  85       13.582924
  86       13.973766
  87       14.309331
  88       14.328864
  89       14.424795
  90       14.873682
  91       15.368844
  92       15.754915
  93       15.761331
  94       15.898118
  95       16.188346
  96       16.493069
  97       16.830498
  98       17.120951
  99       17.141579
 100       17.864358
 101       17.896956
 102       18.154540
 103       18.385375
 104       18.646868
 105       18.987528
 106       19.245177
 107       19.288359
 108       19.295988
 109       19.367997
 110       19.548936
 111       19.552758
 112       19.571909
 113       19.599478
 114       19.714761
 115       19.762936
 116       20.019711
 117       20.500616
 118       20.929224
 119       20.993410
 120       21.348125
 121       21.925821
 122       22.301215
 123       22.320969
 124       22.960674
 125       23.444544
 126       23.765562
 127       24.576146
 128       24.828894
 129       24.860956
 130       24.873039
 131       25.564575
 132       25.574823
 133       25.697160
 134       25.942216
 135       26.154887
 136       26.208086
 137       26.327374
 138       26.375451
 139       26.393191
 140       26.609262
 141       26.751257
 142       27.138555
 143       27.265416
 144       27.443995
 145       27.606166
 146       27.723310
 147       28.222998
 148       28.329797
 149       28.427775
 150       28.428382
 151       28.710908
 152       29.333563
 153       30.171431
 154       31.035592
 155       31.329791
 156       31.708170
 157       31.761358
 158       31.840879
 159       32.055853
 160       32.289028
 
  0.0000000E+00  0.0000000E+00  0.1052632E+00  0.7142857E-02
   1      -26.243455
   2      -26.239133
   3      -26.230108
   4      -26.225712
   5      -26.215109
   6      -26.214203
   7      -19.567708
   8      -19.304260
   9      -19.302742
  10      -19.267025
  11      -18.047550
  12      -17.934840
  13      -14.768151
  14      -14.550639
  15      -14.550291
  16      -14.369105
  17      -12.005253
  18      -11.833232
  19      -11.831577
  20      -11.734229
  21       -6.944666
  22       -6.460920
  23       -6.437274
  24       -6.046434
  25       -5.578544
  26       -4.767066
  27       -4.625292
  28       -4.483524
  29       -4.405132
  30       -3.726529
  31       -3.516294
  32       -3.184649
  33       -2.810414
  34       -2.643882
  35       -2.483728
  36       -2.222900
  37       -2.170352
  38       -1.848251
  39       -1.734862
  40       -1.226303
  41       -1.114372
  42       -0.594864
  43       -0.526791
  44       -0.456758
  45       -0.124796
  46        0.318390
  47        0.361196
  48        0.382811
  49        0.486672
  50        1.343935
  51        1.384885
  52        1.715975
  53        1.835712
  54        2.047406
  55        2.227441
  56        2.710508
  57        3.303996
  58        3.361342
  59        3.471162
  60        4.065121
  61        4.458219
  62        5.774901
  63        7.019076
  64        7.826607
  65        7.980176
  66        8.013050
  67        8.394199
  68        8.715524
  69        8.747630
  70        9.038327
  71        9.071920
  72        9.546331
  73        9.748555
  74        9.763623
  75       10.229359
  76       10.967132
  77       10.975434
  78       11.052540
  79       11.386684
  80       11.438953
  81       11.978361
  82       12.501172
  83       12.888537
  84       13.047198
  85       13.485392
  86       13.782312
  87       14.349747
  88       14.392680
  89       14.456591
  90       15.034237
  91       15.488536
  92       15.754906
  93       15.762510
  94       15.979375
  95       16.275190
  96       16.524685
  97       16.585538
  98       17.113884
  99       17.244902
 100       17.909383
 101       17.919932
 102       18.145739
 103       18.280819
 104       18.500335
 105       18.943084
 106       19.202632
 107       19.282270
 108       19.342794
 109       19.365902
 110       19.380984
 111       19.504775
 112       19.574085
 113       19.574205
 114       19.592731
 115       19.711284
 116       19.961451
 117       20.617659
 118       20.873237
 119       21.029983
 120       21.433835
 121       21.694495
 122       21.917505
 123       22.455641
 124       23.083977
 125       23.398430
 126       23.586872
 127       24.479185
 128       24.843837
 129       24.944568
 130       24.963275
 131       25.573008
 132       25.634464
 133       25.652212
 134       25.787741
 135       25.983775
 136       26.346384
 137       26.358513
 138       26.442308
 139       26.493302
 140       26.607992
 141       26.920663
 142       27.155094
 143       27.233823
 144       27.520945
 145       27.750784
 146       27.770157
 147       28.418049
 148       28.460409
 149       28.574820
 150       28.721397
 151       28.787602
 152       29.762744
 153       30.471682
 154       30.913187
 155       31.456844
 156       31.496159
 157       31.739198
 158       31.827382
 159       32.048014
 160       32.320987
 
  0.0000000E+00  0.0000000E+00  0.1315789E+00  0.7142857E-02
   1      -26.242248
   2      -26.237928
   3      -26.229365
   4      -26.224974
   5      -26.220051
   6      -26.219225
   7      -19.522941
   8      -19.262054
   9      -19.260539
  10      -19.222456
  11      -18.045747
  12      -17.931646
  13      -14.944647
  14      -14.760457
  15      -14.759794
  16      -14.583384
  17      -11.857523
  18      -11.636273
  19      -11.633577
  20      -11.534524
  21       -7.009094
  22       -6.572449
  23       -6.548646
  24       -6.142625
  25       -5.439294
  26       -4.688362
  27       -4.551775
  28       -4.402185
  29       -4.369795
  30       -3.665687
  31       -3.456562
  32       -3.305918
  33       -2.846495
  34       -2.597861
  35       -2.581352
  36       -2.147383
  37       -2.076737
  38       -1.852829
  39       -1.701981
  40       -1.258436
  41       -0.945923
  42       -0.599220
  43       -0.449537
  44       -0.399032
  45       -0.016704
  46        0.286946
  47        0.325714
  48        0.432060
  49        0.449058
  50        1.291467
  51        1.326547
  52        1.548122
  53        1.660514
  54        1.882023
  55        1.999450
  56        2.695406
  57        3.326128
  58        3.475362
  59        3.559052
  60        4.281339
  61        4.611115
  62        5.857739
  63        6.825325
  64        7.892298
  65        7.936538
  66        7.961050
  67        8.507755
  68        8.654071
  69        8.701488
  70        8.980885
  71        8.982979
  72        9.464342
  73        9.751402
  74        9.760533
  75       10.328350
  76       10.820976
  77       11.106073
  78       11.185189
  79       11.297594
  80       11.348625
  81       11.972041
  82       12.595431
  83       12.660566
  84       13.190522
  85       13.354007
  86       13.579946
  87       14.392674
  88       14.491416
  89       14.499239
  90       15.186129
  91       15.619506
  92       15.754860
  93       15.764178
  94       16.075818
  95       16.285471
  96       16.381024
  97       16.566574
  98       17.084706
  99       17.371321
 100       17.946355
 101       17.960549
 102       18.096620
 103       18.179735
 104       18.298263
 105       18.890684
 106       19.004254
 107       19.090105
 108       19.241665
 109       19.253376
 110       19.383845
 111       19.487258
 112       19.598352
 113       19.638318
 114       19.680999
 115       19.715686
 116       19.888683
 117       20.752129
 118       20.794004
 119       21.072865
 120       21.084831
 121       21.540937
 122       21.908229
 123       22.616165
 124       23.229565
 125       23.319007
 126       23.389414
 127       24.350719
 128       24.845464
 129       24.963032
 130       25.033535
 131       25.413635
 132       25.556776
 133       25.741833
 134       25.777578
 135       25.865794
 136       26.292824
 137       26.356036
 138       26.678210
 139       26.697322
 140       26.711541
 141       27.042296
 142       27.131904
 143       27.351818
 144       27.621413
 145       27.815993
 146       27.990794
 147       28.518988
 148       28.713022
 149       28.761108
 150       28.883426
 151       29.045783
 152       30.116776
 153       30.769811
 154       30.824422
 155       31.241790
 156       31.538681
 157       31.613970
 158       31.868728
 159       32.379171
 160       32.518111
 
  0.0000000E+00  0.0000000E+00  0.1578947E+00  0.7142857E-02
   1      -26.240833
   2      -26.236514
   3      -26.228510
   4      -26.225801
   5      -26.225084
   6      -26.224125
   7      -19.468480
   8      -19.210476
   9      -19.208949
  10      -19.168067
  11      -18.043726
  12      -17.927784
  13      -15.136681
  14      -14.981334
  15      -14.980376
  16      -14.808227
  17      -11.697794
  18      -11.430749
  19      -11.426867
  20      -11.326265
  21       -7.089995
  22       -6.700137
  23       -6.676186
  24       -6.256900
  25       -5.273179
  26       -4.593965
  27       -4.464407
  28       -4.401530
  29       -4.232798
  30       -3.590311
  31       -3.432514
  32       -3.383181
  33       -2.876839
  34       -2.659111
  35       -2.541712
  36       -2.070505
  37       -1.973540
  38       -1.858693
  39       -1.657504
  40       -1.281841
  41       -0.787560
  42       -0.605005
  43       -0.440951
  44       -0.271995
  45        0.102897
  46        0.194092
  47        0.261701
  48        0.402430
  49        0.546333
  50        1.230440
  51        1.258290
  52        1.389440
  53        1.488609
  54        1.697723
  55        1.770873
  56        2.688714
  57        3.160617
  58        3.645507
  59        3.757791
  60        4.496589
  61        4.786490
  62        5.957733
  63        6.622981
  64        7.788753
  65        7.900605
  66        8.059949
  67        8.583084
  68        8.615149
  69        8.648516
  70        8.878595
  71        8.915202
  72        9.366405
  73        9.753412
  74        9.756618
  75       10.429758
  76       10.664297
  77       11.116351
  78       11.179905
  79       11.342897
  80       11.409767
  81       11.948819
  82       12.446350
  83       12.716295
  84       13.204345
  85       13.370070
  86       13.378741
  87       14.438571
  88       14.527009
  89       14.642190
  90       15.320752
  91       15.754781
  92       15.760236
  93       15.765522
  94       15.945227
  95       16.181260
  96       16.502410
  97       16.616258
  98       17.017285
  99       17.516926
 100       17.973820
 101       17.988586
 102       18.011287
 103       18.048450
 104       18.104061
 105       18.782391
 106       18.783524
 107       18.835788
 108       19.100635
 109       19.105149
 110       19.422356
 111       19.426728
 112       19.621851
 113       19.665683
 114       19.803144
 115       19.835515
 116       19.914450
 117       20.483246
 118       20.689962
 119       20.905078
 120       21.119564
 121       21.667039
 122       21.901517
 123       22.794586
 124       23.182615
 125       23.206005
 126       23.388857
 127       24.195304
 128       24.702425
 129       24.835974
 130       25.115256
 131       25.489788
 132       25.513497
 133       25.514631
 134       25.943723
 135       25.974047
 136       26.239307
 137       26.378640
 138       26.809081
 139       26.875666
 140       26.935631
 141       26.953029
 142       27.380424
 143       27.492061
 144       27.742936
 145       27.860900
 146       28.278163
 147       28.626279
 148       28.978234
 149       28.979818
 150       28.996487
 151       29.403180
 152       30.383095
 153       30.618384
 154       30.997878
 155       31.207249
 156       31.364660
 157       31.790975
 158       31.959279
 159       32.595170
 160       32.810540
 
  0.0000000E+00  0.0000000E+00  0.1842105E+00  0.7142857E-02
   1      -26.239243
   2      -26.234925
   3      -26.232197
   4      -26.231606
   5      -26.227572
   6      -26.223192
   7      -19.404499
   8      -19.149582
   9      -19.148055
  10      -19.103904
  11      -18.041676
  12      -17.923235
  13      -15.338950
  14      -15.208034
  15      -15.206899
  16      -15.039003
  17      -11.530143
  18      -11.221641
  19      -11.216495
  20      -11.114093
  21       -7.187752
  22       -6.840986
  23       -6.816815
  24       -6.387507
  25       -5.082585
  26       -4.485006
  27       -4.404468
  28       -4.364749
  29       -4.074121
  30       -3.559605
  31       -3.499890
  32       -3.295978
  33       -2.896994
  34       -2.714567
  35       -2.475543
  36       -1.999664
  37       -1.891895
  38       -1.839909
  39       -1.599192
  40       -1.294476
  41       -0.647160
  42       -0.612426
  43       -0.431089
  44       -0.166890
  45        0.083401
  46        0.208984
  47        0.229017
  48        0.346841
  49        0.654230
  50        1.162327
  51        1.181555
  52        1.241046
  53        1.321424
  54        1.499585
  55        1.542558
  56        2.694177
  57        2.979449
  58        3.814184
  59        3.956664
  60        4.710572
  61        4.982374
  62        6.074175
  63        6.414121
  64        7.671437
  65        7.832989
  66        8.192133
  67        8.504659
  68        8.590598
  69        8.715793
  70        8.761174
  71        8.843358
  72        9.253700
  73        9.751069
  74        9.753401
  75       10.506152
  76       10.525776
  77       10.998111
  78       11.056048
  79       11.532390
  80       11.604438
  81       11.906392
  82       12.254152
  83       12.865471
  84       13.052221
  85       13.189152
  86       13.582448
  87       14.483745
  88       14.561847
  89       14.814144
  90       15.416490
  91       15.586592
  92       15.754679
  93       15.775615
  94       15.909960
  95       16.286526
  96       16.635588
  97       16.674421
  98       16.899679
  99       17.677222
 100       17.762516
 101       17.822072
 102       17.998843
 103       18.050827
 104       18.067260
 105       18.456342
 106       18.549665
 107       18.788099
 108       18.922068
 109       18.926505
 110       19.403282
 111       19.479626
 112       19.636011
 113       19.655273
 114       19.706851
 115       19.904125
 116       20.057076
 117       20.138120
 118       20.561343
 119       21.076939
 120       21.166839
 121       21.809129
 122       21.902947
 123       22.972911
 124       22.982313
 125       23.065352
 126       23.552409
 127       24.020563
 128       24.358132
 129       24.818215
 130       25.176517
 131       25.299464
 132       25.447079
 133       25.704204
 134       26.115207
 135       26.140713
 136       26.193788
 137       26.436480
 138       26.844369
 139       26.929080
 140       27.080900
 141       27.192946
 142       27.654653
 143       27.660991
 144       27.880967
 145       27.904385
 146       28.564191
 147       28.734368
 148       29.124653
 149       29.220901
 150       29.251862
 151       29.793301
 152       30.466758
 153       30.566835
 154       30.771815
 155       31.215189
 156       31.606703
 157       31.988470
 158       32.031065
 159       32.634704
 160       32.859594
 
  0.0000000E+00  0.0000000E+00  0.2105263E+00  0.7142857E-02
   1      -26.239061
   2      -26.238580
   3      -26.237518
   4      -26.233200
   5      -26.226572
   6      -26.222197
   7      -19.331206
   8      -19.079402
   9      -19.077859
  10      -19.029995
  11      -18.039727
  12      -17.917920
  13      -15.547443
  14      -15.437114
  15      -15.435838
  16      -15.272200
  17      -11.356990
  18      -11.011993
  19      -11.005527
  20      -10.900310
  21       -7.302231
  22       -6.991978
  23       -6.967726
  24       -6.532322
  25       -4.870090
  26       -4.411805
  27       -4.362801
  28       -4.254507
  29       -3.895283
  30       -3.683881
  31       -3.393870
  32       -3.194795
  33       -2.903092
  34       -2.746149
  35       -2.399474
  36       -1.940558
  37       -1.898466
  38       -1.734807
  39       -1.526617
  40       -1.295626
  41       -0.621684
  42       -0.535676
  43       -0.420052
  44       -0.128961
  45       -0.042448
  46        0.215520
  47        0.283048
  48        0.356407
  49        0.749797
  50        1.088648
  51        1.097860
  52        1.102362
  53        1.159883
  54        1.292658
  55        1.315257
  56        2.714461
  57        2.787101
  58        3.981475
  59        4.155322
  60        4.923255
  61        5.197448
  62        6.200459
  63        6.206263
  64        7.542356
  65        7.759238
  66        8.328628
  67        8.420988
  68        8.529753
  69        8.633560
  70        8.767454
  71        8.809489
  72        9.127476
  73        9.742724
  74        9.749974
  75       10.355096
  76       10.609927
  77       10.861074
  78       10.916420
  79       11.757640
  80       11.830970
  81       11.843618
  82       12.091109
  83       12.911290
  84       13.020594
  85       13.043466
  86       13.822856
  87       14.511076
  88       14.595221
  89       15.008844
  90       15.165144
  91       15.554726
  92       15.754560
  93       15.782577
  94       16.067784
  95       16.375467
  96       16.732306
  97       16.740698
  98       16.775202
  99       17.453273
 100       17.622282
 101       17.846776
 102       18.014136
 103       18.052511
 104       18.063056
 105       18.117502
 106       18.336063
 107       18.718361
 108       18.724530
 109       18.762809
 110       19.324357
 111       19.415217
 112       19.530981