 vasp.5.3.3 18Dez12 (build Oct 30 2014 23:44:25) complex                        
  
 executed on             LinuxIFC date 2016.02.26  14:50:37
 running on    8 total cores
 distrk:  each k-point on    8 cores,    1 groups
 distr:  one band on NCORES_PER_BAND=   2 cores,    4 groups


--------------------------------------------------------------------------------------------------------


 INCAR:
 POTCAR:   PAW_PBE Hf_pv 06Sep2000                
 POTCAR:   PAW_PBE N 08Apr2002                    
 POTCAR:   PAW_PBE Hf_pv 06Sep2000                
   VRHFIN =Hf: 5p6s5d                                                           
   LEXCH  = PE                                                                  
   EATOM  =   859.6195 eV,   63.1803 Ry                                         
                                                                                
   TITEL  = PAW_PBE Hf_pv 06Sep2000                                             
   LULTRA =        F    use ultrasoft PP ?                                      
   IUNSCR =        1    unscreen: 0-lin 1-nonlin 2-no                           
   RPACOR =    2.500    partial core radius                                     
   POMASS =  178.490; ZVAL   =   10.000    mass and valenz                      
   RCORE  =    2.600    outmost cutoff radius                                   
   RWIGS  =    3.050; RWIGS  =    1.614    wigner-seitz radius (au A)           
   ENMAX  =  220.342; ENMIN  =  165.256 eV                                      
   RCLOC  =    2.212    cutoff for local pot                                    
   LCOR   =        T    correct aug charges                                     
   LPAW   =        T    paw PP                                                  
   EAUG   =  380.878                                                            
   DEXC   =    -.057                                                            
   RMAX   =    3.106    core radius for proj-oper                               
   RAUG   =    1.300    factor for augmentation sphere                          
   RDEP   =    2.681    radius for radial grids                                 
   QCUT   =   -4.024; QGAM   =    8.049    optimization parameters              
                                                                                
   Description                                                                  
     l     E      TYP  RCUT    TYP  RCUT                                        
     1   .000     23  2.500                                                     
     1   .000     23  2.500                                                     
     2   .000     23  2.500                                                     
     2   .000     23  2.500                                                     
     0   .000     23  2.600                                                     
     0   .000     23  2.600                                                     
     3   .000      7   .000                                                     
  local pseudopotential read in
  partial core-charges read in
  atomic valenz-charges read in
  non local Contribution for L=           1  read in
    real space projection operators read in
  non local Contribution for L=           1  read in
    real space projection operators read in
  non local Contribution for L=           2  read in
    real space projection operators read in
  non local Contribution for L=           2  read in
    real space projection operators read in
  non local Contribution for L=           0  read in
    real space projection operators read in
  non local Contribution for L=           0  read in
    real space projection operators read in
    PAW grid and wavefunctions read in
 
   number of l-projection  operators is LMAX  =           6
   number of lm-projection operators is LMMAX =          18
 
 POTCAR:   PAW_PBE N 08Apr2002                    
   VRHFIN =N: s2p3                                                              
   LEXCH  = PE                                                                  
   EATOM  =   264.5486 eV,   19.4438 Ry                                         
                                                                                
   TITEL  = PAW_PBE N 08Apr2002                                                 
   LULTRA =        F    use ultrasoft PP ?                                      
   IUNSCR =        0    unscreen: 0-lin 1-nonlin 2-no                           
   RPACOR =     .000    partial core radius                                     
   POMASS =   14.001; ZVAL   =    5.000    mass and valenz                      
   RCORE  =    1.500    outmost cutoff radius                                   
   RWIGS  =    1.400; RWIGS  =     .741    wigner-seitz radius (au A)           
   ENMAX  =  400.000; ENMIN  =  300.000 eV                                      
   ICORE  =        2    local potential                                         
   LCOR   =        T    correct aug charges                                     
   LPAW   =        T    paw PP                                                  
   EAUG   =  627.112                                                            
   DEXC   =     .000                                                            
   RMAX   =    2.247    core radius for proj-oper                               
   RAUG   =    1.300    factor for augmentation sphere                          
   RDEP   =    1.514    radius for radial grids                                 
   QCUT   =   -5.562; QGAM   =   11.124    optimization parameters              
                                                                                
   Description                                                                  
     l     E      TYP  RCUT    TYP  RCUT                                        
     0   .000     23  1.200                                                     
     0   .000     23  1.200                                                     
     1   .000     23  1.500                                                     
     1   .700     23  1.500                                                     
     2   .000      7  1.500                                                     
  local pseudopotential read in
  atomic valenz-charges read in
  non local Contribution for L=           0  read in
    real space projection operators read in
  non local Contribution for L=           0  read in
    real space projection operators read in
  non local Contribution for L=           1  read in
    real space projection operators read in
  non local Contribution for L=           1  read in
    real space projection operators read in
    PAW grid and wavefunctions read in
 
   number of l-projection  operators is LMAX  =           4
   number of lm-projection operators is LMMAX =           8
 

 ----------------------------------------------------------------------------- 
|                                                                             |
|  ADVICE TO THIS USER RUNNING 'VASP/VAMP'   (HEAR YOUR MASTER'S VOICE ...):  |
|                                                                             |
|      You have a (more or less) 'large supercell' and for larger cells       |
|      it might be more efficient to use real space projection operators      |
|      So try LREAL= Auto  in the INCAR   file.                               |
|      Mind: If you want to do a very accurate calculations keep the          |
|      reciprocal projection scheme          (i.e. LREAL=.FALSE.)             |
|                                                                             |
 ----------------------------------------------------------------------------- 

 PAW_PBE Hf_pv 06Sep2000                :
 energy of atom  1       EATOM= -859.6195
 kinetic energy error for atom=    0.0008 (will be added to EATOM!!)
 PAW_PBE N 08Apr2002                    :
 energy of atom  2       EATOM= -264.5486
 kinetic energy error for atom=    0.0103 (will be added to EATOM!!)
 
 
 POSCAR: SG44HfN10_0GPa_conventionalcell\(2)     
  positions in direct lattice
  velocities in cartesian coordinates
 exchange correlation table for  LEXCH =        8
   RHO(1)=    0.500       N(1)  =     2000
   RHO(2)=  100.500       N(2)  =     4000
 


--------------------------------------------------------------------------------------------------------


 ion  position               nearest neighbor table
   1  0.500  0.500  0.721-  15 2.36  16 2.36  17 2.36  18 2.36   7 2.36   8 2.36   9 2.36  10 2.36

   2  0.000  0.000  0.221-  11 2.36  14 2.36  13 2.36  12 2.36   3 2.36   4 2.36   5 2.36   6 2.36

   3  0.809  0.193  0.897-  11 1.33  16 1.35   2 2.36
   4  0.191  0.807  0.897-  12 1.33  15 1.35   2 2.36
   5  0.809  0.807  0.897-  13 1.33  18 1.35   2 2.36
   6  0.191  0.193  0.897-  14 1.33  17 1.35   2 2.36
   7  0.309  0.693  0.397-  15 1.33  12 1.35   1 2.36
   8  0.691  0.307  0.397-  16 1.33  11 1.35   1 2.36
   9  0.309  0.307  0.397-  17 1.33  14 1.35   1 2.36
  10  0.691  0.693  0.397-  18 1.33  13 1.35   1 2.36
  11  0.809  0.193  0.544-   3 1.33   8 1.35   2 2.36
  12  0.191  0.807  0.544-   4 1.33   7 1.35   2 2.36
  13  0.809  0.807  0.544-   5 1.33  10 1.35   2 2.36
  14  0.191  0.193  0.544-   6 1.33   9 1.35   2 2.36
  15  0.309  0.693  0.044-   7 1.33   4 1.35   1 2.36
  16  0.691  0.307  0.044-   8 1.33   3 1.35   1 2.36
  17  0.309  0.307  0.044-   9 1.33   6 1.35   1 2.36
  18  0.691  0.693  0.044-  10 1.33   5 1.35   1 2.36
  19  0.000  0.500  0.369-  21 1.11
  20  0.500  0.000  0.869-  22 1.11
  21  0.000  0.500  0.072-  19 1.11
  22  0.500  0.000  0.572-  20 1.11
 
  LATTYP: Found a simple orthorhombic cell.
 ALAT       =     3.7553799216
 B/A-ratio  =     1.9791816335
 C/A-ratio  =     1.9900617709
  
  Lattice vectors:
  
 A1 = (   0.0000000000,   0.0000000000,  -3.7553799216)
 A2 = (   0.0000000000,  -7.4325789676,   0.0000000000)
 A3 = (  -7.4734380174,   0.0000000000,   0.0000000000)


Analysis of symmetry for initial positions (statically):
=====================================================================
 Subroutine PRICEL returns following result:
 
  LATTYP: Found a body centered orthorhombic cell.
 ALAT       =     3.7553799216
 B/A-ratio  =     1.9791816335
 C/A-ratio  =     1.9900617709
  
  Lattice vectors:
  
 A1 = (  -3.7367190087,  -3.7162894838,   1.8776899647)
 A2 = (  -3.7367190087,   3.7162894838,  -1.8776899569)
 A3 = (   3.7367190087,  -3.7162894838,  -1.8776899647)
 
   2 primitive cells build up your supercell.
 

 Routine SETGRP: Setting up the symmetry group for a 
 simple orthorhombic supercell.


 Subroutine GETGRP returns: Found  4 space group operations
 (whereof  4 operations were pure point group operations)
 out of a pool of  8 trial point group operations.


The static configuration has the point symmetry C_2v.


Analysis of symmetry for dynamics (positions and initial velocities):
=====================================================================
 Subroutine PRICEL returns following result:
 
  LATTYP: Found a body centered orthorhombic cell.
 ALAT       =     3.7553799216
 B/A-ratio  =     1.9791816335
 C/A-ratio  =     1.9900617709
  
  Lattice vectors:
  
 A1 = (  -3.7367190087,  -3.7162894838,   1.8776899647)
 A2 = (  -3.7367190087,   3.7162894838,  -1.8776899569)
 A3 = (   3.7367190087,  -3.7162894838,  -1.8776899647)
 
   2 primitive cells build up your supercell.
 

 Routine SETGRP: Setting up the symmetry group for a 
 simple orthorhombic supercell.


 Subroutine GETGRP returns: Found  4 space group operations
 (whereof  4 operations were pure point group operations)
 out of a pool of  8 trial point group operations.


The dynamic configuration has the point symmetry C_2v.


 irot  :   1
 --------------------------------------------------------------------
 isymop:   1   0   0
           0   1   0
           0   0   1

 gtrans:     0.0000000     0.0000000     0.0000000

 ptrans:     0.0000000     0.0000000     0.0000000
 rotmap:
 (   1->   1)  (   2->   2)  (   3->   3)  (   4->   4)  (   5->   5) 
 (   6->   6)  (   7->   7)  (   8->   8)  (   9->   9)  (  10->  10) 
 (  11->  11)  (  12->  12)  (  13->  13)  (  14->  14)  (  15->  15) 
 (  16->  16)  (  17->  17)  (  18->  18)  (  19->  19)  (  20->  20) 
 (  21->  21)  (  22->  22) 

 ptrans:     0.5000000     0.5000000     0.5000000
 rotmap:
 (   1->   2)  (   2->   1)  (   3->   7)  (   4->   8)  (   5->   9) 
 (   6->  10)  (   7->   3)  (   8->   4)  (   9->   5)  (  10->   6) 
 (  11->  15)  (  12->  16)  (  13->  17)  (  14->  18)  (  15->  11) 
 (  16->  12)  (  17->  13)  (  18->  14)  (  19->  20)  (  20->  19) 
 (  21->  22)  (  22->  21) 


 irot  :   2
 --------------------------------------------------------------------
 isymop:  -1   0   0
           0   1   0
           0   0   1

 gtrans:     0.0000000     0.0000000     0.0000000

 ptrans:     0.0000000     0.0000000     0.0000000
 rotmap:
 (   1->   1)  (   2->   2)  (   3->   6)  (   4->   5)  (   5->   4) 
 (   6->   3)  (   7->  10)  (   8->   9)  (   9->   8)  (  10->   7) 
 (  11->  14)  (  12->  13)  (  13->  12)  (  14->  11)  (  15->  18) 
 (  16->  17)  (  17->  16)  (  18->  15)  (  19->  19)  (  20->  20) 
 (  21->  21)  (  22->  22) 

 ptrans:     0.5000000     0.5000000     0.5000000
 rotmap:
 (   1->   2)  (   2->   1)  (   3->  10)  (   4->   9)  (   5->   8) 
 (   6->   7)  (   7->   6)  (   8->   5)  (   9->   4)  (  10->   3) 
 (  11->  18)  (  12->  17)  (  13->  16)  (  14->  15)  (  15->  14) 
 (  16->  13)  (  17->  12)  (  18->  11)  (  19->  20)  (  20->  19) 
 (  21->  22)  (  22->  21) 


 irot  :   3
 --------------------------------------------------------------------
 isymop:   1   0   0
           0  -1   0
           0   0   1

 gtrans:     0.0000000     0.0000000     0.0000000

 ptrans:     0.0000000     0.0000000     0.0000000
 rotmap:
 (   1->   1)  (   2->   2)  (   3->   5)  (   4->   6)  (   5->   3) 
 (   6->   4)  (   7->   9)  (   8->  10)  (   9->   7)  (  10->   8) 
 (  11->  13)  (  12->  14)  (  13->  11)  (  14->  12)  (  15->  17) 
 (  16->  18)  (  17->  15)  (  18->  16)  (  19->  19)  (  20->  20) 
 (  21->  21)  (  22->  22) 

 ptrans:     0.5000000     0.5000000     0.5000000
 rotmap:
 (   1->   2)  (   2->   1)  (   3->   9)  (   4->  10)  (   5->   7) 
 (   6->   8)  (   7->   5)  (   8->   6)  (   9->   3)  (  10->   4) 
 (  11->  17)  (  12->  18)  (  13->  15)  (  14->  16)  (  15->  13) 
 (  16->  14)  (  17->  11)  (  18->  12)  (  19->  20)  (  20->  19) 
 (  21->  22)  (  22->  21) 


 irot  :   4
 --------------------------------------------------------------------
 isymop:  -1   0   0
           0  -1   0
           0   0   1

 gtrans:     0.0000000     0.0000000     0.0000000

 ptrans:     0.0000000     0.0000000     0.0000000
 rotmap:
 (   1->   1)  (   2->   2)  (   3->   4)  (   4->   3)  (   5->   6) 
 (   6->   5)  (   7->   8)  (   8->   7)  (   9->  10)  (  10->   9) 
 (  11->  12)  (  12->  11)  (  13->  14)  (  14->  13)  (  15->  16) 
 (  16->  15)  (  17->  18)  (  18->  17)  (  19->  19)  (  20->  20) 
 (  21->  21)  (  22->  22) 

 ptrans:     0.5000000     0.5000000     0.5000000
 rotmap:
 (   1->   2)  (   2->   1)  (   3->   8)  (   4->   7)  (   5->  10) 
 (   6->   9)  (   7->   4)  (   8->   3)  (   9->   6)  (  10->   5) 
 (  11->  16)  (  12->  15)  (  13->  18)  (  14->  17)  (  15->  12) 
 (  16->  11)  (  17->  14)  (  18->  13)  (  19->  20)  (  20->  19) 
 (  21->  22)  (  22->  21) 
 
 
 KPOINTS: k-points along high symmetry lines      
  interpolating k-points between supplied coordinates
  k-points in reciprocal lattice
Space group operators:
 irot       det(A)        alpha          n_x          n_y          n_z        tau_x        tau_y        tau_z
    1     1.000000     0.000001     1.000000     0.000000     0.000000     0.000000     0.000000     0.000000
    2    -1.000000   180.000000     1.000000     0.000000     0.000000     0.000000     0.000000     0.000000
    3    -1.000000   179.999999     0.000000     1.000000     0.000000     0.000000     0.000000     0.000000
    4     1.000000   180.000000     0.000000     0.000000     1.000000     0.000000     0.000000     0.000000


--------------------------------------------------------------------------------------------------------




 Dimension of arrays:
   k-points           NKPTS =    140   k-points in BZ     NKDIM =    140   number of bands    NBANDS=    160
   number of dos      NEDOS =    301   number of ions     NIONS =     22
   non local maximal  LDIM  =      6   non local SUM 2l+1 LMDIM =     18
   total plane-waves  NPLWV = 108000
   max r-space proj   IRMAX =      1   max aug-charges    IRDMAX=  28887
   dimension x,y,z NGX =    60 NGY =   60 NGZ =   30
   dimension x,y,z NGXF=   120 NGYF=  120 NGZF=   60
   support grid    NGXF=   120 NGYF=  120 NGZF=   60
   ions per type =               2  20
 NGX,Y,Z   is equivalent  to a cutoff of  13.35, 13.42, 13.28 a.u.
 NGXF,Y,Z  is equivalent  to a cutoff of  26.69, 26.84, 26.56 a.u.


 I would recommend the setting:
   dimension x,y,z NGX =    60 NGY =   59 NGZ =   30
 SYSTEM =  SG29HfO2                                
 POSCAR =  SG44HfN10_0GPa_conventionalcell\(2)     

 Startparameter for this run:
   NWRITE =      2    write-flag & timer
   PREC   = accura    normal or accurate (medium, high low for compatibility)
   ISTART =      1    job   : 0-new  1-cont  2-samecut
   ICHARG =     11    charge: 1-file 2-atom 10-const
   ISPIN  =      1    spin polarized calculation?
   LNONCOLLINEAR =      F non collinear calculations
   LSORBIT =      F    spin-orbit coupling
   INIWAV =      1    electr: 0-lowe 1-rand  2-diag
   LASPH  =      F    aspherical Exc in radial PAW
   METAGGA=      F    non-selfconsistent MetaGGA calc.

 Electronic Relaxation 1
   ENCUT  =  600.0 eV  44.10 Ry    6.64 a.u.  14.93 14.84  7.50*2*pi/ulx,y,z
   ENINI  =  600.0     initial cutoff
   ENAUG  =  627.1 eV  augmentation charge cutoff
   NELM   =     60;   NELMIN=  2; NELMDL=  0     # of ELM steps 
   EDIFF  = 0.1E-06   stopping-criterion for ELM
   LREAL  =      F    real-space projection
   NLSPLINE    = F    spline interpolate recip. space projectors
   LCOMPAT=      F    compatible to vasp.4.4
   GGA_COMPAT  = T    GGA compatible to vasp.4.4-vasp.4.6
   LMAXPAW     = -100 max onsite density
   LMAXMIX     =    2 max onsite mixed and CHGCAR
   VOSKOWN=      0    Vosko Wilk Nusair interpolation
   ROPT   =    0.00000   0.00000
 Ionic relaxation
   EDIFFG = 0.1E-05   stopping-criterion for IOM
   NSW    =      0    number of steps for IOM
   NBLOCK =      1;   KBLOCK =      1    inner block; outer block 
   IBRION =     -1    ionic relax: 0-MD 1-quasi-New 2-CG
   NFREE  =      0    steps in history (QN), initial steepest desc. (CG)
   ISIF   =      2    stress and relaxation
   IWAVPR =     10    prediction:  0-non 1-charg 2-wave 3-comb
   ISYM   =      2    0-nonsym 1-usesym 2-fastsym
   LCORR  =      T    Harris-Foulkes like correction to forces

   POTIM  = 0.5000    time-step for ionic-motion
   TEIN   =    0.0    initial temperature
   TEBEG  =    0.0;   TEEND  =   0.0 temperature during run
   SMASS  =  -3.00    Nose mass-parameter (am)
   estimated Nose-frequenzy (Omega)   =  0.10E-29 period in steps =****** mass=  -0.128E-26a.u.
   SCALEE = 1.0000    scale energy and forces
   NPACO  =    256;   APACO  = 16.0  distance and # of slots for P.C.
   PSTRESS=    0.0 pullay stress

  Mass of Ions in am
   POMASS = 178.49 14.00
  Ionic Valenz
   ZVAL   =  10.00  5.00
  Atomic Wigner-Seitz radii
   RWIGS  =  -1.00 -1.00
  virtual crystal weights 
   VCA    =   1.00  1.00
   NELECT =     120.0000    total number of electrons
   NUPDOWN=      -1.0000    fix difference up-down

 DOS related values:
   EMIN   =  10.00;   EMAX   =-10.00  energy-range for DOS
   EFERMI =   0.00
   ISMEAR =     1;   SIGMA  =   0.20  broadening in eV -4-tet -1-fermi 0-gaus

 Electronic relaxation 2 (details)
   IALGO  =     38    algorithm
   LDIAG  =      T    sub-space diagonalisation (order eigenvalues)
   LSUBROT=      T    optimize rotation matrix (better conditioning)
   TURBO    =      0    0=normal 1=particle mesh
   IRESTART =      0    0=no restart 2=restart with 2 vectors
   NREBOOT  =      0    no. of reboots
   NMIN     =      0    reboot dimension
   EREF     =   0.00    reference energy to select bands
   IMIX   =      4    mixing-type and parameters
     AMIX     =   0.40;   BMIX     =  1.00
     AMIX_MAG =   1.60;   BMIX_MAG =  1.00
     AMIN     =   0.10
     WC   =   100.;   INIMIX=   1;  MIXPRE=   1;  MAXMIX= -45

 Intra band minimization:
   WEIMIN = 0.0000     energy-eigenvalue tresh-hold
   EBREAK =  0.16E-09  absolut break condition
   DEPER  =   0.30     relativ break condition  

   TIME   =   0.40     timestep for ELM

  volume/ion in A,a.u.               =       9.48        63.99
  Fermi-wavevector in a.u.,A,eV,Ry     =   1.361541  2.572939 25.222386  1.853793
  Thomas-Fermi vector in A             =   2.488108
 
 Write flags
   LWAVE  =      T    write WAVECAR
   LCHARG =      T    write CHGCAR
   LVTOT  =      F    write LOCPOT, total local potential
   LVHAR  =      F    write LOCPOT, Hartree potential only
   LELF   =      F    write electronic localiz. function (ELF)
   LORBIT =      0    0 simple, 1 ext, 2 COOP (PROOUT)


 Dipole corrections
   LMONO  =      F    monopole corrections only (constant potential shift)
   LDIPOL =      F    correct potential (dipole corrections)
   IDIPOL =      0    1-x, 2-y, 3-z, 4-all directions 
   EPSILON=  1.0000000 bulk dielectric constant

 Exchange correlation treatment:
   GGA     =    --    GGA type
   LEXCH   =     8    internal setting for exchange type
   VOSKOWN=      0    Vosko Wilk Nusair interpolation
   LHFCALC =     F    Hartree Fock is set to
   LHFONE  =     F    Hartree Fock one center treatment
   AEXX    =    0.0000 exact exchange contribution

 Linear response parameters
   LEPSILON=     F    determine dielectric tensor
   LRPA    =     F    only Hartree local field effects (RPA)
   LNABLA  =     F    use nabla operator in PAW spheres
   LVEL    =     F    velocity operator in full k-point grid
   LINTERFAST=   F  fast interpolation
   KINTER  =     0    interpolate to denser k-point grid
   CSHIFT  =0.1000    complex shift for real part using Kramers Kronig
   OMEGAMAX=  -1.0    maximum frequency
   DEG_THRESHOLD= 0.2000000E-02 threshold for treating states as degnerate
   RTIME   =    0.100 relaxation time in fs

 Orbital magnetization related:
   ORBITALMAG=     F  switch on orbital magnetization
   LCHIMAG   =     F  perturbation theory with respect to B field
   DQ        =  0.001000  dq finite difference perturbation B field



--------------------------------------------------------------------------------------------------------


 Static calculation
 charge density and potential remain constant during run
 non-spin polarized calculation
 Variant of blocked Davidson
 Davidson routine will perform the subspace rotation
 perform sub-space diagonalisation
    after iterative eigenvector-optimisation
 no mixing
 using additional bands          100
 reciprocal scheme for non local part
 use partial core corrections
 calculate Harris-corrections to forces 
   (improved forces if not selfconsistent)
 use gradient corrections 
 WARNING: stress and forces are not correct
  (second derivative of E(xc) not defined)
 use of overlap-Matrix (Vanderbilt PP)
 Methfessel and Paxton  Order N= 1 SIGMA  =   0.20


--------------------------------------------------------------------------------------------------------


  energy-cutoff  :      600.00
  volume of cell :      208.60
      direct lattice vectors                 reciprocal lattice vectors
     7.473438017  0.000000000  0.000000000     0.133807225  0.000000000  0.000000000
     0.000000000  7.432578968  0.000000000     0.000000000  0.134542802  0.000000000
     0.000000000  0.000000000  3.755379922     0.000000000  0.000000000  0.266284643

  length of vectors
     7.473438017  7.432578968  3.755379922     0.133807225  0.134542802  0.266284643


 
 old parameters found on file WAVECAR:
  energy-cutoff  :      600.00
  volume of cell :      208.60
      direct lattice vectors                 reciprocal lattice vectors
     7.473438017  0.000000000  0.000000000     0.133807225  0.000000000  0.000000000
     0.000000000  7.432578968  0.000000000     0.000000000  0.134542802  0.000000000
     0.000000000  0.000000000  3.755379922     0.000000000  0.000000000  0.266284643

  length of vectors

 
 k-points in units of 2pi/SCALE and weight: k-points along high symmetry lines      
   0.00000000  0.00000000  0.00000000       0.007
   0.00000000  0.00000000  0.00700749       0.007
   0.00000000  0.00000000  0.01401498       0.007
   0.00000000  0.00000000  0.02102247       0.007
   0.00000000  0.00000000  0.02802996       0.007
   0.00000000  0.00000000  0.03503745       0.007
   0.00000000  0.00000000  0.04204494       0.007
   0.00000000  0.00000000  0.04905243       0.007
   0.00000000  0.00000000  0.05605992       0.007
   0.00000000  0.00000000  0.06306742       0.007
   0.00000000  0.00000000  0.07007491       0.007
   0.00000000  0.00000000  0.07708240       0.007
   0.00000000  0.00000000  0.08408989       0.007
   0.00000000  0.00000000  0.09109738       0.007
   0.00000000  0.00000000  0.09810487       0.007
   0.00000000  0.00000000  0.10511236       0.007
   0.00000000  0.00000000  0.11211985       0.007
   0.00000000  0.00000000  0.11912734       0.007
   0.00000000  0.00000000  0.12613483       0.007
   0.00000000  0.00000000  0.13314232       0.007
   0.00000000  0.00000000  0.13314232       0.007
  -0.00352124  0.00000000  0.13314232       0.007
  -0.00704249  0.00000000  0.13314232       0.007
  -0.01056373  0.00000000  0.13314232       0.007
  -0.01408497  0.00000000  0.13314232       0.007
  -0.01760621  0.00000000  0.13314232       0.007
  -0.02112746  0.00000000  0.13314232       0.007
  -0.02464870  0.00000000  0.13314232       0.007
  -0.02816994  0.00000000  0.13314232       0.007
  -0.03169118  0.00000000  0.13314232       0.007
  -0.03521243  0.00000000  0.13314232       0.007
  -0.03873367  0.00000000  0.13314232       0.007
  -0.04225491  0.00000000  0.13314232       0.007
  -0.04577616  0.00000000  0.13314232       0.007
  -0.04929740  0.00000000  0.13314232       0.007
  -0.05281864  0.00000000  0.13314232       0.007
  -0.05633988  0.00000000  0.13314232       0.007
  -0.05986113  0.00000000  0.13314232       0.007
  -0.06338237  0.00000000  0.13314232       0.007
  -0.06690361  0.00000000  0.13314232       0.007
  -0.06690361  0.00000000  0.13314232       0.007
  -0.06690361  0.00000000  0.12613483       0.007
  -0.06690361  0.00000000  0.11912734       0.007
  -0.06690361  0.00000000  0.11211985       0.007
  -0.06690361  0.00000000  0.10511236       0.007
  -0.06690361  0.00000000  0.09810487       0.007
  -0.06690361  0.00000000  0.09109738       0.007
  -0.06690361  0.00000000  0.08408989       0.007
  -0.06690361  0.00000000  0.07708240       0.007
  -0.06690361  0.00000000  0.07007491       0.007
  -0.06690361  0.00000000  0.06306742       0.007
  -0.06690361  0.00000000  0.05605992       0.007
  -0.06690361  0.00000000  0.04905243       0.007
  -0.06690361  0.00000000  0.04204494       0.007
  -0.06690361  0.00000000  0.03503745       0.007
  -0.06690361  0.00000000  0.02802996       0.007
  -0.06690361  0.00000000  0.02102247       0.007
  -0.06690361  0.00000000  0.01401498       0.007
  -0.06690361  0.00000000  0.00700749       0.007
  -0.06690361  0.00000000  0.00000000       0.007
  -0.06690361  0.00000000  0.00000000       0.007
  -0.06690361  0.00354060  0.00000000       0.007
  -0.06690361  0.00708120  0.00000000       0.007
  -0.06690361  0.01062180  0.00000000       0.007
  -0.06690361  0.01416240  0.00000000       0.007
  -0.06690361  0.01770300  0.00000000       0.007
  -0.06690361  0.02124360  0.00000000       0.007
  -0.06690361  0.02478420  0.00000000       0.007
  -0.06690361  0.02832480  0.00000000       0.007
  -0.06690361  0.03186540  0.00000000       0.007
  -0.06690361  0.03540600  0.00000000       0.007
  -0.06690361  0.03894660  0.00000000       0.007
  -0.06690361  0.04248720  0.00000000       0.007
  -0.06690361  0.04602780  0.00000000       0.007
  -0.06690361  0.04956840  0.00000000       0.007
  -0.06690361  0.05310900  0.00000000       0.007
  -0.06690361  0.05664960  0.00000000       0.007
  -0.06690361  0.06019020  0.00000000       0.007
  -0.06690361  0.06373080  0.00000000       0.007
  -0.06690361  0.06727140  0.00000000       0.007
  -0.06690361  0.06727140  0.00000000       0.007
  -0.06338237  0.06727140  0.00000000       0.007
  -0.05986113  0.06727140  0.00000000       0.007
  -0.05633988  0.06727140  0.00000000       0.007
  -0.05281864  0.06727140  0.00000000       0.007
  -0.04929740  0.06727140  0.00000000       0.007
  -0.04577616  0.06727140  0.00000000       0.007
  -0.04225491  0.06727140  0.00000000       0.007
  -0.03873367  0.06727140  0.00000000       0.007
  -0.03521243  0.06727140  0.00000000       0.007
  -0.03169118  0.06727140  0.00000000       0.007
  -0.02816994  0.06727140  0.00000000       0.007
  -0.02464870  0.06727140  0.00000000       0.007
  -0.02112746  0.06727140  0.00000000       0.007
  -0.01760621  0.06727140  0.00000000       0.007
  -0.01408497  0.06727140  0.00000000       0.007
  -0.01056373  0.06727140  0.00000000       0.007
  -0.00704249  0.06727140  0.00000000       0.007
  -0.00352124  0.06727140  0.00000000       0.007
   0.00000000  0.06727140  0.00000000       0.007
   0.00000000  0.06727140  0.00000000       0.007
   0.00000000  0.06727140  0.00700749       0.007
   0.00000000  0.06727140  0.01401498       0.007
   0.00000000  0.06727140  0.02102247       0.007
   0.00000000  0.06727140  0.02802996       0.007
   0.00000000  0.06727140  0.03503745       0.007
   0.00000000  0.06727140  0.04204494       0.007
   0.00000000  0.06727140  0.04905243       0.007
   0.00000000  0.06727140  0.05605992       0.007
   0.00000000  0.06727140  0.06306742       0.007
   0.00000000  0.06727140  0.07007491       0.007
   0.00000000  0.06727140  0.07708240       0.007
   0.00000000  0.06727140  0.08408989       0.007
   0.00000000  0.06727140  0.09109738       0.007
   0.00000000  0.06727140  0.09810487       0.007
   0.00000000  0.06727140  0.10511236       0.007
   0.00000000  0.06727140  0.11211985       0.007
   0.00000000  0.06727140  0.11912734       0.007
   0.00000000  0.06727140  0.12613483       0.007
   0.00000000  0.06727140  0.13314232       0.007
   0.00000000  0.06727140  0.13314232       0.007
  -0.00352124  0.06727140  0.13314232       0.007
  -0.00704249  0.06727140  0.13314232       0.007
  -0.01056373  0.06727140  0.13314232       0.007
  -0.01408497  0.06727140  0.13314232       0.007
  -0.01760621  0.06727140  0.13314232       0.007
  -0.02112746  0.06727140  0.13314232       0.007
  -0.02464870  0.06727140  0.13314232       0.007
  -0.02816994  0.06727140  0.13314232       0.007
  -0.03169118  0.06727140  0.13314232       0.007
  -0.03521243  0.06727140  0.13314232       0.007
  -0.03873367  0.06727140  0.13314232       0.007
  -0.04225491  0.06727140  0.13314232       0.007
  -0.04577616  0.06727140  0.13314232       0.007
  -0.04929740  0.06727140  0.13314232       0.007
  -0.05281864  0.06727140  0.13314232       0.007
  -0.05633988  0.06727140  0.13314232       0.007
  -0.05986113  0.06727140  0.13314232       0.007
  -0.06338237  0.06727140  0.13314232       0.007
  -0.06690361  0.06727140  0.13314232       0.007
 
 k-points in reciprocal lattice and weights: k-points along high symmetry lines      
   0.00000000  0.00000000  0.00000000       0.007
   0.00000000  0.00000000  0.02631579       0.007
   0.00000000  0.00000000  0.05263158       0.007
   0.00000000  0.00000000  0.07894737       0.007
   0.00000000  0.00000000  0.10526316       0.007
   0.00000000  0.00000000  0.13157895       0.007
   0.00000000  0.00000000  0.15789474       0.007
   0.00000000  0.00000000  0.18421053       0.007
   0.00000000  0.00000000  0.21052632       0.007
   0.00000000  0.00000000  0.23684211       0.007
   0.00000000  0.00000000  0.26315789       0.007
   0.00000000  0.00000000  0.28947368       0.007
   0.00000000  0.00000000  0.31578947       0.007
   0.00000000  0.00000000  0.34210526       0.007
   0.00000000  0.00000000  0.36842105       0.007
   0.00000000  0.00000000  0.39473684       0.007
   0.00000000  0.00000000  0.42105263       0.007
   0.00000000  0.00000000  0.44736842       0.007
   0.00000000  0.00000000  0.47368421       0.007
   0.00000000  0.00000000  0.50000000       0.007
   0.00000000  0.00000000  0.50000000       0.007
  -0.02631579  0.00000000  0.50000000       0.007
  -0.05263158  0.00000000  0.50000000       0.007
  -0.07894737  0.00000000  0.50000000       0.007
  -0.10526316  0.00000000  0.50000000       0.007
  -0.13157895  0.00000000  0.50000000       0.007
  -0.15789474  0.00000000  0.50000000       0.007
  -0.18421053  0.00000000  0.50000000       0.007
  -0.21052632  0.00000000  0.50000000       0.007
  -0.23684211  0.00000000  0.50000000       0.007
  -0.26315789  0.00000000  0.50000000       0.007
  -0.28947368  0.00000000  0.50000000       0.007
  -0.31578947  0.00000000  0.50000000       0.007
  -0.34210526  0.00000000  0.50000000       0.007
  -0.36842105  0.00000000  0.50000000       0.007
  -0.39473684  0.00000000  0.50000000       0.007
  -0.42105263  0.00000000  0.50000000       0.007
  -0.44736842  0.00000000  0.50000000       0.007
  -0.47368421  0.00000000  0.50000000       0.007
  -0.50000000  0.00000000  0.50000000       0.007
  -0.50000000  0.00000000  0.50000000       0.007
  -0.50000000  0.00000000  0.47368421       0.007
  -0.50000000  0.00000000  0.44736842       0.007
  -0.50000000  0.00000000  0.42105263       0.007
  -0.50000000  0.00000000  0.39473684       0.007
  -0.50000000  0.00000000  0.36842105       0.007
  -0.50000000  0.00000000  0.34210526       0.007
  -0.50000000  0.00000000  0.31578947       0.007
  -0.50000000  0.00000000  0.28947368       0.007
  -0.50000000  0.00000000  0.26315789       0.007
  -0.50000000  0.00000000  0.23684211       0.007
  -0.50000000  0.00000000  0.21052632       0.007
  -0.50000000  0.00000000  0.18421053       0.007
  -0.50000000  0.00000000  0.15789474       0.007
  -0.50000000  0.00000000  0.13157895       0.007
  -0.50000000  0.00000000  0.10526316       0.007
  -0.50000000  0.00000000  0.07894737       0.007
  -0.50000000  0.00000000  0.05263158       0.007
  -0.50000000  0.00000000  0.02631579       0.007
  -0.50000000  0.00000000  0.00000000       0.007
  -0.50000000  0.00000000  0.00000000       0.007
  -0.50000000  0.02631579  0.00000000       0.007
  -0.50000000  0.05263158  0.00000000       0.007
  -0.50000000  0.07894737  0.00000000       0.007
  -0.50000000  0.10526316  0.00000000       0.007
  -0.50000000  0.13157895  0.00000000       0.007
  -0.50000000  0.15789474  0.00000000       0.007
  -0.50000000  0.18421053  0.00000000       0.007
  -0.50000000  0.21052632  0.00000000       0.007
  -0.50000000  0.23684211  0.00000000       0.007
  -0.50000000  0.26315789  0.00000000       0.007
  -0.50000000  0.28947368  0.00000000       0.007
  -0.50000000  0.31578947  0.00000000       0.007
  -0.50000000  0.34210526  0.00000000       0.007
  -0.50000000  0.36842105  0.00000000       0.007
  -0.50000000  0.39473684  0.00000000       0.007
  -0.50000000  0.42105263  0.00000000       0.007
  -0.50000000  0.44736842  0.00000000       0.007
  -0.50000000  0.47368421  0.00000000       0.007
  -0.50000000  0.50000000  0.00000000       0.007
  -0.50000000  0.50000000  0.00000000       0.007
  -0.47368421  0.50000000  0.00000000       0.007
  -0.44736842  0.50000000  0.00000000       0.007
  -0.42105263  0.50000000  0.00000000       0.007
  -0.39473684  0.50000000  0.00000000       0.007
  -0.36842105  0.50000000  0.00000000       0.007
  -0.34210526  0.50000000  0.00000000       0.007
  -0.31578947  0.50000000  0.00000000       0.007
  -0.28947368  0.50000000  0.00000000       0.007
  -0.26315789  0.50000000  0.00000000       0.007
  -0.23684211  0.50000000  0.00000000       0.007
  -0.21052632  0.50000000  0.00000000       0.007
  -0.18421053  0.50000000  0.00000000       0.007
  -0.15789474  0.50000000  0.00000000       0.007
  -0.13157895  0.50000000  0.00000000       0.007
  -0.10526316  0.50000000  0.00000000       0.007
  -0.07894737  0.50000000  0.00000000       0.007
  -0.05263158  0.50000000  0.00000000       0.007
  -0.02631579  0.50000000  0.00000000       0.007
   0.00000000  0.50000000  0.00000000       0.007
   0.00000000  0.50000000  0.00000000       0.007
   0.00000000  0.50000000  0.02631579       0.007
   0.00000000  0.50000000  0.05263158       0.007
   0.00000000  0.50000000  0.07894737       0.007
   0.00000000  0.50000000  0.10526316       0.007
   0.00000000  0.50000000  0.13157895       0.007
   0.00000000  0.50000000  0.15789474       0.007
   0.00000000  0.50000000  0.18421053       0.007
   0.00000000  0.50000000  0.21052632       0.007
   0.00000000  0.50000000  0.23684211       0.007
   0.00000000  0.50000000  0.26315789       0.007
   0.00000000  0.50000000  0.28947368       0.007
   0.00000000  0.50000000  0.31578947       0.007
   0.00000000  0.50000000  0.34210526       0.007
   0.00000000  0.50000000  0.36842105       0.007
   0.00000000  0.50000000  0.39473684       0.007
   0.00000000  0.50000000  0.42105263       0.007
   0.00000000  0.50000000  0.44736842       0.007
   0.00000000  0.50000000  0.47368421       0.007
   0.00000000  0.50000000  0.50000000       0.007
   0.00000000  0.50000000  0.50000000       0.007
  -0.02631579  0.50000000  0.50000000       0.007
  -0.05263158  0.50000000  0.50000000       0.007
  -0.07894737  0.50000000  0.50000000       0.007
  -0.10526316  0.50000000  0.50000000       0.007
  -0.13157895  0.50000000  0.50000000       0.007
  -0.15789474  0.50000000  0.50000000       0.007
  -0.18421053  0.50000000  0.50000000       0.007
  -0.21052632  0.50000000  0.50000000       0.007
  -0.23684211  0.50000000  0.50000000       0.007
  -0.26315789  0.50000000  0.50000000       0.007
  -0.28947368  0.50000000  0.50000000       0.007
  -0.31578947  0.50000000  0.50000000       0.007
  -0.34210526  0.50000000  0.50000000       0.007
  -0.36842105  0.50000000  0.50000000       0.007
  -0.39473684  0.50000000  0.50000000       0.007
  -0.42105263  0.50000000  0.50000000       0.007
  -0.44736842  0.50000000  0.50000000       0.007
  -0.47368421  0.50000000  0.50000000       0.007
  -0.50000000  0.50000000  0.50000000       0.007
 
 position of ions in fractional coordinates (direct lattice) 
   0.50000000  0.50000000  0.72082143
   0.00000000  0.00000000  0.22082142
   0.80947661  0.19250603  0.89731959
   0.19052339  0.80749397  0.89731959
   0.80947661  0.80749397  0.89731959
   0.19052339  0.19250603  0.89731959
   0.30947661  0.69250603  0.39731959
   0.69052339  0.30749397  0.39731959
   0.30947661  0.30749397  0.39731959
   0.69052339  0.69250603  0.39731959
   0.80948815  0.19251660  0.54426630
   0.19051185  0.80748338  0.54426630
   0.80948815  0.80748338  0.54426630
   0.19051185  0.19251660  0.54426630
   0.30948815  0.69251661  0.04426630
   0.69051185  0.30748339  0.04426630
   0.30948815  0.30748339  0.04426630
   0.69051185  0.69251661  0.04426630
   0.00000000  0.50000000  0.36864664
   0.50000000  0.00000000  0.86864661
   0.00000000  0.50000000  0.07218846
   0.50000000  0.00000000  0.57218857
 
 position of ions in cartesian coordinates  (Angst):
   3.73671901  3.71628948  2.70695831
   0.00000000  0.00000000  0.82926834
   6.04957327  1.43081624  3.36977598
   1.42386475  6.00176273  3.36977598
   6.04957327  6.00176273  3.36977598
   1.42386475  1.43081624  3.36977598
   2.31285426  5.14710574  1.49208602
   5.16058376  2.28547323  1.49208602
   2.31285426  2.28547323  1.49208602
   5.16058376  5.14710574  1.49208602
   6.04965952  1.43089487  2.04392675
   1.42377849  6.00168399  2.04392675
   6.04965952  6.00168399  2.04392675
   1.42377849  1.43089487  2.04392675
   2.31294052  5.14718442  0.16623679
   5.16049750  2.28539454  0.16623679
   2.31294052  2.28539454  0.16623679
   5.16049750  5.14718442  0.16623679
   0.00000000  3.71628948  1.38440820
   3.73671901  0.00000000  3.26209802
   0.00000000  3.71628948  0.27109509
   3.73671901  0.00000000  2.14878545
 


--------------------------------------------------------------------------------------------------------


 k-point  1 :   0.0000 0.0000 0.0000  plane waves:    6971
 k-point  2 :   0.0000 0.0000 0.0263  plane waves:    6977
 k-point  3 :   0.0000 0.0000 0.0526  plane waves:    6965
 k-point  4 :   0.0000 0.0000 0.0789  plane waves:    6963
 k-point  5 :   0.0000 0.0000 0.1053  plane waves:    6967
 k-point  6 :   0.0000 0.0000 0.1316  plane waves:    6979
 k-point  7 :   0.0000 0.0000 0.1579  plane waves:    6967
 k-point  8 :   0.0000 0.0000 0.1842  plane waves:    6983
 k-point  9 :   0.0000 0.0000 0.2105  plane waves:    6975
 k-point 10 :   0.0000 0.0000 0.2368  plane waves:    6979
 k-point 11 :   0.0000 0.0000 0.2632  plane waves:    6959
 k-point 12 :   0.0000 0.0000 0.2895  plane waves:    6943
 k-point 13 :   0.0000 0.0000 0.3158  plane waves:    6925
 k-point 14 :   0.0000 0.0000 0.3421  plane waves:    6917
 k-point 15 :   0.0000 0.0000 0.3684  plane waves:    6917
 k-point 16 :   0.0000 0.0000 0.3947  plane waves:    6931
 k-point 17 :   0.0000 0.0000 0.4211  plane waves:    6923
 k-point 18 :   0.0000 0.0000 0.4474  plane waves:    6917
 k-point 19 :   0.0000 0.0000 0.4737  plane waves:    6929
 k-point 20 :   0.0000 0.0000 0.5000  plane waves:    6916
 k-point 21 :   0.0000 0.0000 0.5000  plane waves:    6916
 k-point 22 :  -0.0263 0.0000 0.5000  plane waves:    6916
 k-point 23 :  -0.0526 0.0000 0.5000  plane waves:    6920
 k-point 24 :  -0.0789 0.0000 0.5000  plane waves:    6920
 k-point 25 :  -0.1053 0.0000 0.5000  plane waves:    6920
 k-point 26 :  -0.1316 0.0000 0.5000  plane waves:    6918
 k-point 27 :  -0.1579 0.0000 0.5000  plane waves:    6928
 k-point 28 :  -0.1842 0.0000 0.5000  plane waves:    6930
 k-point 29 :  -0.2105 0.0000 0.5000  plane waves:    6920
 k-point 30 :  -0.2368 0.0000 0.5000  plane waves:    6920
 k-point 31 :  -0.2632 0.0000 0.5000  plane waves:    6924
 k-point 32 :  -0.2895 0.0000 0.5000  plane waves:    6928
 k-point 33 :  -0.3158 0.0000 0.5000  plane waves:    6924
 k-point 34 :  -0.3421 0.0000 0.5000  plane waves:    6912
 k-point 35 :  -0.3684 0.0000 0.5000  plane waves:    6908
 k-point 36 :  -0.3947 0.0000 0.5000  plane waves:    6914
 k-point 37 :  -0.4211 0.0000 0.5000  plane waves:    6926
 k-point 38 :  -0.4474 0.0000 0.5000  plane waves:    6938
 k-point 39 :  -0.4737 0.0000 0.5000  plane waves:    6940
 k-point 40 :  -0.5000 0.0000 0.5000  plane waves:    6928
 k-point 41 :  -0.5000 0.0000 0.5000  plane waves:    6928
 k-point 42 :  -0.5000 0.0000 0.4737  plane waves:    6964
 k-point 43 :  -0.5000 0.0000 0.4474  plane waves:    6958
 k-point 44 :  -0.5000 0.0000 0.4211  plane waves:    6954
 k-point 45 :  -0.5000 0.0000 0.3947  plane waves:    6970
 k-point 46 :  -0.5000 0.0000 0.3684  plane waves:    6972
 k-point 47 :  -0.5000 0.0000 0.3421  plane waves:    6972
 k-point 48 :  -0.5000 0.0000 0.3158  plane waves:    6970
 k-point 49 :  -0.5000 0.0000 0.2895  plane waves:    6964
 k-point 50 :  -0.5000 0.0000 0.2632  plane waves:    6968
 k-point 51 :  -0.5000 0.0000 0.2368  plane waves:    6958
 k-point 52 :  -0.5000 0.0000 0.2105  plane waves:    6972
 k-point 53 :  -0.5000 0.0000 0.1842  plane waves:    6970
 k-point 54 :  -0.5000 0.0000 0.1579  plane waves:    6960
 k-point 55 :  -0.5000 0.0000 0.1316  plane waves:    6974
 k-point 56 :  -0.5000 0.0000 0.1053  plane waves:    6982
 k-point 57 :  -0.5000 0.0000 0.0789  plane waves:    6980
 k-point 58 :  -0.5000 0.0000 0.0526  plane waves:    7000
 k-point 59 :  -0.5000 0.0000 0.0263  plane waves:    6994
 k-point 60 :  -0.5000 0.0000 0.0000  plane waves:    6990
 k-point 61 :  -0.5000 0.0000 0.0000  plane waves:    6990
 k-point 62 :  -0.5000 0.0263 0.0000  plane waves:    6990
 k-point 63 :  -0.5000 0.0526 0.0000  plane waves:    6986
 k-point 64 :  -0.5000 0.0789 0.0000  plane waves:    6982
 k-point 65 :  -0.5000 0.1053 0.0000  plane waves:    6978
 k-point 66 :  -0.5000 0.1316 0.0000  plane waves:    6976
 k-point 67 :  -0.5000 0.1579 0.0000  plane waves:    6974
 k-point 68 :  -0.5000 0.1842 0.0000  plane waves:    6974
 k-point 69 :  -0.5000 0.2105 0.0000  plane waves:    6966
 k-point 70 :  -0.5000 0.2368 0.0000  plane waves:    6980
 k-point 71 :  -0.5000 0.2632 0.0000  plane waves:    6984
 k-point 72 :  -0.5000 0.2895 0.0000  plane waves:    6984
 k-point 73 :  -0.5000 0.3158 0.0000  plane waves:    6972
 k-point 74 :  -0.5000 0.3421 0.0000  plane waves:    6982
 k-point 75 :  -0.5000 0.3684 0.0000  plane waves:    6986
 k-point 76 :  -0.5000 0.3947 0.0000  plane waves:    6978
 k-point 77 :  -0.5000 0.4211 0.0000  plane waves:    6990
 k-point 78 :  -0.5000 0.4474 0.0000  plane waves:    6992
 k-point 79 :  -0.5000 0.4737 0.0000  plane waves:    6994
 k-point 80 :  -0.5000 0.5000 0.0000  plane waves:    7008
 k-point 81 :  -0.5000 0.5000 0.0000  plane waves:    7008
 k-point 82 :  -0.4737 0.5000 0.0000  plane waves:    6994
 k-point 83 :  -0.4474 0.5000 0.0000  plane waves:    6994
 k-point 84 :  -0.4211 0.5000 0.0000  plane waves:    6980
 k-point 85 :  -0.3947 0.5000 0.0000  plane waves:    6982
 k-point 86 :  -0.3684 0.5000 0.0000  plane waves:    6986
 k-point 87 :  -0.3421 0.5000 0.0000  plane waves:    6990
 k-point 88 :  -0.3158 0.5000 0.0000  plane waves:    6982
 k-point 89 :  -0.2895 0.5000 0.0000  plane waves:    6986
 k-point 90 :  -0.2632 0.5000 0.0000  plane waves:    6972
 k-point 91 :  -0.2368 0.5000 0.0000  plane waves:    6978
 k-point 92 :  -0.2105 0.5000 0.0000  plane waves:    6976
 k-point 93 :  -0.1842 0.5000 0.0000  plane waves:    6968
 k-point 94 :  -0.1579 0.5000 0.0000  plane waves:    6968
 k-point 95 :  -0.1316 0.5000 0.0000  plane waves:    6968
 k-point 96 :  -0.1053 0.5000 0.0000  plane waves:    6978
 k-point 97 :  -0.0789 0.5000 0.0000  plane waves:    6976
 k-point 98 :  -0.0526 0.5000 0.0000  plane waves:    6976
 k-point 99 :  -0.0263 0.5000 0.0000  plane waves:    6982
 k-point ** :   0.0000 0.5000 0.0000  plane waves:    6990
 k-point ** :   0.0000 0.5000 0.0000  plane waves:    6990
 k-point ** :   0.0000 0.5000 0.0263  plane waves:    6974
 k-point ** :   0.0000 0.5000 0.0526  plane waves:    6986
 k-point ** :   0.0000 0.5000 0.0789  plane waves:    6966
 k-point ** :   0.0000 0.5000 0.1053  plane waves:    6974
 k-point ** :   0.0000 0.5000 0.1316  plane waves:    6956
 k-point ** :   0.0000 0.5000 0.1579  plane waves:    6972
 k-point ** :   0.0000 0.5000 0.1842  plane waves:    6976
 k-point ** :   0.0000 0.5000 0.2105  plane waves:    6968
 k-point ** :   0.0000 0.5000 0.2368  plane waves:    6958
 k-point ** :   0.0000 0.5000 0.2632  plane waves:    6966
 k-point ** :   0.0000 0.5000 0.2895  plane waves:    6952
 k-point ** :   0.0000 0.5000 0.3158  plane waves:    6954
 k-point ** :   0.0000 0.5000 0.3421  plane waves:    6974
 k-point ** :   0.0000 0.5000 0.3684  plane waves:    6970
 k-point ** :   0.0000 0.5000 0.3947  plane waves:    6966
 k-point ** :   0.0000 0.5000 0.4211  plane waves:    6958
 k-point ** :   0.0000 0.5000 0.4474  plane waves:    6958
 k-point ** :   0.0000 0.5000 0.4737  plane waves:    6950
 k-point ** :   0.0000 0.5000 0.5000  plane waves:    6936
 k-point ** :   0.0000 0.5000 0.5000  plane waves:    6936
 k-point ** :  -0.0263 0.5000 0.5000  plane waves:    6952
 k-point ** :  -0.0526 0.5000 0.5000  plane waves:    6944
 k-point ** :  -0.0789 0.5000 0.5000  plane waves:    6944
 k-point ** :  -0.1053 0.5000 0.5000  plane waves:    6944
 k-point ** :  -0.1316 0.5000 0.5000  plane waves:    6936
 k-point ** :  -0.1579 0.5000 0.5000  plane waves:    6944
 k-point ** :  -0.1842 0.5000 0.5000  plane waves:    6952
 k-point ** :  -0.2105 0.5000 0.5000  plane waves:    6940
 k-point ** :  -0.2368 0.5000 0.5000  plane waves:    6944
 k-point ** :  -0.2632 0.5000 0.5000  plane waves:    6940
 k-point ** :  -0.2895 0.5000 0.5000  plane waves:    6948
 k-point ** :  -0.3158 0.5000 0.5000  plane waves:    6940
 k-point ** :  -0.3421 0.5000 0.5000  plane waves:    6932
 k-point ** :  -0.3684 0.5000 0.5000  plane waves:    6932
 k-point ** :  -0.3947 0.5000 0.5000  plane waves:    6928
 k-point ** :  -0.4211 0.5000 0.5000  plane waves:    6924
 k-point ** :  -0.4474 0.5000 0.5000  plane waves:    6916
 k-point ** :  -0.4737 0.5000 0.5000  plane waves:    6912
 k-point ** :  -0.5000 0.5000 0.5000  plane waves:    6920

 maximum and minimum number of plane-waves per node :      3528     3435

 maximum number of plane-waves:      7008
 maximum index in each direction: 
   IXMAX=   15   IYMAX=   14   IZMAX=    7
   IXMIN=  -14   IYMIN=  -15   IZMIN=   -8

 NGX is ok and might be reduce to  60
 NGY is ok and might be reduce to  60
 WARNING: aliasing errors must be expected set NGZ to  32 to avoid them
 aliasing errors are usually negligible using standard VASP settings
 and one can safely disregard these warnings

 total amount of memory used by VASP on root node   508290. kBytes
========================================================================

   base      :      30000. kBytes
   nonl-proj :     142189. kBytes
   fftplans  :       5349. kBytes
   grid      :       8380. kBytes
   one-center:        171. kBytes
   wavefun   :     322201. kBytes
 
 initial charge density was supplied:
 number of electron     120.0000012 magnetization 
 keeping initial charge density in first step


--------------------------------------------------------------------------------------------------------


 Maximum index for augmentation-charges         3537 (set IRDMAX)


--------------------------------------------------------------------------------------------------------


 First call to EWALD:  gamma=   0.299
 Maximum number of real-space cells 2x 2x 4
 Maximum number of reciprocal cells 3x 3x 2

 FEWALD executed in parallel
    FEWALD:  cpu time    0.00: real time    0.00


----------------------------------------- Iteration    1(   1)  ---------------------------------------


    POTLOK:  cpu time    0.09: real time    0.22
    SETDIJ:  cpu time    0.01: real time    0.05
     EDDAV:  cpu time   89.07: real time   89.74
       DOS:  cpu time    0.02: real time    0.02
    --------------------------------------------
      LOOP:  cpu time   89.19: real time   90.06

 eigenvalue-minimisations  : 44784
 total energy-change (2. order) :-0.1190696E+03  (-0.7950991E+02)
 number of electron     120.0000012 magnetization 
 augmentation part      120.0000012 magnetization 

 Free energy of the ion-electron system (eV)
  ---------------------------------------------------
  alpha Z        PSCENC =       465.63813320
  Ewald energy   TEWEN  =     -5617.19384524
  -1/2 Hartree   DENC   =     -1632.79942333
  -exchange  EXHF       =         0.00000000
  -V(xc)+E(xc)   XCENC  =       452.82540772
  PAW double counting   =      4241.28005125    -4249.04975042
  entropy T*S    EENTRO =         0.00178360
  eigenvalues    EBANDS =      -789.77560184
  atomic energy  EATOM  =      7010.00360772
  ---------------------------------------------------
  free energy    TOTEN  =      -119.06963735 eV

  energy without entropy =     -119.07142094  energy(sigma->0) =     -119.07023188


--------------------------------------------------------------------------------------------------------




----------------------------------------- Iteration    1(   2)  ---------------------------------------


     EDDAV:  cpu time  100.79: real time  101.26
       DOS:  cpu time    0.02: real time    0.02
    --------------------------------------------
      LOOP:  cpu time  100.81: real time  101.28

 eigenvalue-minimisations  : 53496
 total energy-change (2. order) :-0.6189546E+02  (-0.5695478E+02)
 number of electron     120.0000012 magnetization 
 augmentation part      120.0000012 magnetization 

 Free energy of the ion-electron system (eV)
  ---------------------------------------------------
  alpha Z        PSCENC =       465.63813320
  Ewald energy   TEWEN  =     -5617.19384524
  -1/2 Hartree   DENC   =     -1632.79942333
  -exchange  EXHF       =         0.00000000
  -V(xc)+E(xc)   XCENC  =       452.82540772
  PAW double counting   =      4241.28005125    -4249.04975042
  entropy T*S    EENTRO =         0.00607138
  eigenvalues    EBANDS =      -851.67534855
  atomic energy  EATOM  =      7010.00360772
  ---------------------------------------------------
  free energy    TOTEN  =      -180.96509627 eV

  energy without entropy =     -180.97116766  energy(sigma->0) =     -180.96712007


--------------------------------------------------------------------------------------------------------




----------------------------------------- Iteration    1(   3)  ---------------------------------------


     EDDAV:  cpu time  100.58: real time  100.91
       DOS:  cpu time    0.02: real time    0.02
    --------------------------------------------
      LOOP:  cpu time  100.60: real time  100.93

 eigenvalue-minimisations  : 53256
 total energy-change (2. order) :-0.1860213E+01  (-0.1804355E+01)
 number of electron     120.0000012 magnetization 
 augmentation part      120.0000012 magnetization 

 Free energy of the ion-electron system (eV)
  ---------------------------------------------------
  alpha Z        PSCENC =       465.63813320
  Ewald energy   TEWEN  =     -5617.19384524
  -1/2 Hartree   DENC   =     -1632.79942333
  -exchange  EXHF       =         0.00000000
  -V(xc)+E(xc)   XCENC  =       452.82540772
  PAW double counting   =      4241.28005125    -4249.04975042
  entropy T*S    EENTRO =         0.00454525
  eigenvalues    EBANDS =      -853.53403539
  atomic energy  EATOM  =      7010.00360772
  ---------------------------------------------------
  free energy    TOTEN  =      -182.82530925 eV

  energy without entropy =     -182.82985450  energy(sigma->0) =     -182.82682433


--------------------------------------------------------------------------------------------------------




----------------------------------------- Iteration    1(   4)  ---------------------------------------


     EDDAV:  cpu time   99.33: real time   99.61
       DOS:  cpu time    0.02: real time    0.02
    --------------------------------------------
      LOOP:  cpu time   99.35: real time   99.63

 eigenvalue-minimisations  : 52240
 total energy-change (2. order) :-0.6903570E-02  (-0.6899447E-02)
 number of electron     120.0000012 magnetization 
 augmentation part      120.0000012 magnetization 

 Free energy of the ion-electron system (eV)
  ---------------------------------------------------
  alpha Z        PSCENC =       465.63813320
  Ewald energy   TEWEN  =     -5617.19384524
  -1/2 Hartree   DENC   =     -1632.79942333
  -exchange  EXHF       =         0.00000000
  -V(xc)+E(xc)   XCENC  =       452.82540772
  PAW double counting   =      4241.28005125    -4249.04975042
  entropy T*S    EENTRO =         0.00453979
  eigenvalues    EBANDS =      -853.54093350
  atomic energy  EATOM  =      7010.00360772
  ---------------------------------------------------
  free energy    TOTEN  =      -182.83221282 eV

  energy without entropy =     -182.83675261  energy(sigma->0) =     -182.83372608


--------------------------------------------------------------------------------------------------------




----------------------------------------- Iteration    1(   5)  ---------------------------------------


     EDDAV:  cpu time   98.07: real time   98.37
       DOS:  cpu time    0.02: real time    0.02
    --------------------------------------------
      LOOP:  cpu time   98.08: real time   98.39

 eigenvalue-minimisations  : 51600
 total energy-change (2. order) :-0.2226778E-04  (-0.2226704E-04)
 number of electron     120.0000012 magnetization 
 augmentation part      120.0000012 magnetization 

 Free energy of the ion-electron system (eV)
  ---------------------------------------------------
  alpha Z        PSCENC =       465.63813320
  Ewald energy   TEWEN  =     -5617.19384524
  -1/2 Hartree   DENC   =     -1632.79942333
  -exchange  EXHF       =         0.00000000
  -V(xc)+E(xc)   XCENC  =       452.82540772
  PAW double counting   =      4241.28005125    -4249.04975042
  entropy T*S    EENTRO =         0.00453978
  eigenvalues    EBANDS =      -853.54095576
  atomic energy  EATOM  =      7010.00360772
  ---------------------------------------------------
  free energy    TOTEN  =      -182.83223508 eV

  energy without entropy =     -182.83677487  energy(sigma->0) =     -182.83374835


--------------------------------------------------------------------------------------------------------




----------------------------------------- Iteration    1(   6)  ---------------------------------------


     EDDAV:  cpu time   98.52: real time   98.80
       DOS:  cpu time    0.02: real time    0.02
    --------------------------------------------
      LOOP:  cpu time   98.54: real time   98.82

 eigenvalue-minimisations  : 51920
 total energy-change (2. order) :-0.1681874E-06  (-0.1677553E-06)
 number of electron     120.0000012 magnetization 
 augmentation part      120.0000012 magnetization 

 Free energy of the ion-electron system (eV)
  ---------------------------------------------------
  alpha Z        PSCENC =       465.63813320
  Ewald energy   TEWEN  =     -5617.19384524
  -1/2 Hartree   DENC   =     -1632.79942333
  -exchange  EXHF       =         0.00000000
  -V(xc)+E(xc)   XCENC  =       452.82540772
  PAW double counting   =      4241.28005125    -4249.04975042
  entropy T*S    EENTRO =         0.00453978
  eigenvalues    EBANDS =      -853.54095593
  atomic energy  EATOM  =      7010.00360772
  ---------------------------------------------------
  free energy    TOTEN  =      -182.83223525 eV

  energy without entropy =     -182.83677504  energy(sigma->0) =     -182.83374851


--------------------------------------------------------------------------------------------------------




----------------------------------------- Iteration    1(   7)  ---------------------------------------


     EDDAV:  cpu time   85.76: real time   86.01
       DOS:  cpu time    0.02: real time    0.02
    --------------------------------------------
      LOOP:  cpu time   85.78: real time   86.03

 eigenvalue-minimisations  : 42768
 total energy-change (2. order) :-0.1530680E-08  (-0.1984886E-08)
 number of electron     120.0000012 magnetization 
 augmentation part      120.0000012 magnetization 

 Free energy of the ion-electron system (eV)
  ---------------------------------------------------
  alpha Z        PSCENC =       465.63813320
  Ewald energy   TEWEN  =     -5617.19384524
  -1/2 Hartree   DENC   =     -1632.79942333
  -exchange  EXHF       =         0.00000000
  -V(xc)+E(xc)   XCENC  =       452.82540772
  PAW double counting   =      4241.28005125    -4249.04975042
  entropy T*S    EENTRO =         0.00453978
  eigenvalues    EBANDS =      -853.54095593
  atomic energy  EATOM  =      7010.00360772
  ---------------------------------------------------
  free energy    TOTEN  =      -182.83223525 eV

  energy without entropy =     -182.83677504  energy(sigma->0) =     -182.83374852


--------------------------------------------------------------------------------------------------------




 average (electrostatic) potential at core
  the test charge radii are     1.1707  0.7089
  (the norm of the test charge is              1.0000)
       1 -38.2592       2 -38.2592       3 -66.2460       4 -66.2460       5 -66.2460
       6 -66.2460       7 -66.2460       8 -66.2460       9 -66.2460      10 -66.2460
      11 -66.2458      12 -66.2458      13 -66.2458      14 -66.2458      15 -66.2458
      16 -66.2458      17 -66.2458      18 -66.2458      19 -65.7355      20 -65.7356
      21 -65.7358      22 -65.7358
 
 
 
 E-fermi :   5.3992     XC(G=0): -11.0730     alpha+bet :-10.8930


 k-point   1 :       0.0000    0.0000    0.0000
  band No.  band energies     occupation 
      1     -26.2457      2.00000
      2     -26.2414      2.00000
      3     -26.2315      2.00000
      4     -26.2271      2.00000
      5     -26.2058      2.00000
      6     -26.2047      2.00000
      7     -19.6478      2.00000
      8     -19.3794      2.00000
      9     -19.3779      2.00000
     10     -19.3464      2.00000
     11     -18.0511      2.00000
     12     -17.9406      2.00000
     13     -14.3848      2.00000
     14     -14.0541      2.00000
     15     -14.0531      2.00000
     16     -13.8548      2.00000
     17     -12.3323      2.00000
     18     -12.3078      2.00000
     19     -12.3069      2.00000
     20     -12.2211      2.00000
     21      -6.8355      2.00000
     22      -6.2437      2.00000
     23      -6.2204      2.00000
     24      -5.8694      2.00000
     25      -5.8338      2.00000
     26      -4.9101      2.00000
     27      -4.7603      2.00000
     28      -4.6895      2.00000
     29      -4.4163      2.00000
     30      -3.8329      2.00000
     31      -3.6219      2.00000
     32      -2.9067      2.00000
     33      -2.7261      2.00000
     34      -2.7151      2.00000
     35      -2.3876      2.00000
     36      -2.3587      2.00000
     37      -2.0751      2.00000
     38      -1.8428      2.00000
     39      -1.7868      2.00000
     40      -1.6585      2.00000
     41      -1.1180      2.00000
     42      -0.8221      2.00000
     43      -0.5880      2.00000
     44      -0.4701      2.00000
     45      -0.3457      2.00000
     46       0.0486      2.00000
     47       0.4848      2.00000
     48       0.4864      2.00000
     49       0.5515      2.00000
     50       1.4434      2.00000
     51       1.4947      2.00000
     52       2.2967      2.00000
     53       2.3908      2.00000
     54       2.4415      2.00000
     55       2.7109      2.00000
     56       2.7365      2.00000
     57       2.7645      2.00000
     58       3.0015      2.00000
     59       3.3140      2.00000
     60       3.7546      2.00000
     61       4.1499      2.00000
     62       5.6253     -0.06782
     63       7.5548      0.00000
     64       7.6078      0.00000
     65       8.0071      0.00000
     66       8.1121      0.00000
     67       8.1440      0.00000
     68       8.8328      0.00000
     69       8.8361      0.00000
     70       9.1498      0.00000
     71       9.2382      0.00000
     72       9.6966      0.00000
     73       9.7414      0.00000
     74       9.7704      0.00000
     75      10.0113      0.00000
     76      10.7067      0.00000
     77      10.7814      0.00000
     78      11.2752      0.00000
     79      11.5927      0.00000
     80      11.6444      0.00000
     81      11.9437      0.00000
     82      12.3458      0.00000
     83      12.8164      0.00000
     84      13.5951      0.00000
     85      13.6683      0.00000
     86      14.1927      0.00000
     87      14.3016      0.00000
     88      14.3094      0.00000
     89      14.3759      0.00000
     90      14.5612      0.00000
     91      15.1586      0.00000
     92      15.7549      0.00000
     93      15.7600      0.00000
     94      15.7853      0.00000
     95      16.0701      0.00000
     96      16.4515      0.00000
     97      17.0013      0.00000
     98      17.1129      0.00000
     99      17.1640      0.00000
    100      17.8003      0.00000
    101      17.8641      0.00000
    102      18.1286      0.00000
    103      18.5532      0.00000
    104      18.8014      0.00000
    105      19.0486      0.00000
    106      19.0747      0.00000
    107      19.1078      0.00000
    108      19.2010      0.00000
    109      19.5204      0.00000
    110      19.5980      0.00000
    111      19.6793      0.00000
    112      19.6836      0.00000
    113      19.9275      0.00000
    114      19.9281      0.00000
    115      19.9311      0.00000
    116      20.0966      0.00000
    117      20.2938      0.00000
    118      20.9410      0.00000
    119      20.9905      0.00000
    120      21.2349      0.00000
    121      21.9357      0.00000
    122      22.1339      0.00000
    123      22.7884      0.00000
    124      23.4702      0.00000
    125      23.6604      0.00000
    126      24.0456      0.00000
    127      24.6886      0.00000
    128      24.7338      0.00000
    129      24.7369      0.00000
    130      24.7733      0.00000
    131      24.8354      0.00000
    132      25.5442      0.00000
    133      25.5457      0.00000
    134      25.9386      0.00000
    135      26.0581      0.00000
    136      26.0899      0.00000
    137      26.4214      0.00000
    138      26.4572      0.00000
    139      26.5266      0.00000
    140      26.6404      0.00000
    141      27.0075      0.00000
    142      27.3505      0.00000
    143      27.4923      0.00000
    144      27.5944      0.00000
    145      27.5961      0.00000
    146      27.6364      0.00000
    147      27.7179      0.00000
    148      27.7877      0.00000
    149      28.1244      0.00000
    150      28.2013      0.00000
    151      28.2452      0.00000
    152      28.6093      0.00000
    153      29.7566      0.00000
    154      31.1554      0.00000
    155      31.2154      0.00000
    156      31.5755      0.00000
    157      31.5957      0.00000
    158      32.1382      0.00000
    159      32.2167      0.00000
    160      32.7254      0.00000

 k-point   2 :       0.0000    0.0000    0.0263
  band No.  band energies     occupation 
      1     -26.2456      2.00000
      2     -26.2413      2.00000
      3     -26.2314      2.00000
      4     -26.2270      2.00000
      5     -26.2064      2.00000
      6     -26.2053      2.00000
      7     -19.6428      2.00000
      8     -19.3747      2.00000
      9     -19.3732      2.00000
     10     -19.3414      2.00000
     11     -18.0509      2.00000
     12     -17.9402      2.00000
     13     -14.4126      2.00000
     14     -14.0933      2.00000
     15     -14.0925      2.00000
     16     -13.8960      2.00000
     17     -12.3082      2.00000
     18     -12.2698      2.00000
     19     -12.2691      2.00000
     20     -12.1815      2.00000
     21      -6.8421      2.00000
     22      -6.2581      2.00000
     23      -6.2348      2.00000
     24      -5.8806      2.00000
     25      -5.8175      2.00000
     26      -4.9011      2.00000
     27      -4.7518      2.00000
     28      -4.6765      2.00000
     29      -4.4154      2.00000
     30      -3.8263      2.00000
     31      -3.6153      2.00000
     32      -2.9274      2.00000
     33      -2.7225      2.00000
     34      -2.7209      2.00000
     35      -2.3761      2.00000
     36      -2.3460      2.00000
     37      -2.1321      2.00000
     38      -1.8431      2.00000
     39      -1.7837      2.00000
     40      -1.5928      2.00000
     41      -1.1277      2.00000
     42      -0.8002      2.00000
     43      -0.5884      2.00000
     44      -0.4692      2.00000
     45      -0.3306      2.00000
     46       0.0691      2.00000
     47       0.4786      2.00000
     48       0.4788      2.00000
     49       0.5475      2.00000
     50       1.4369      2.00000
     51       1.4876      2.00000
     52       2.2195      2.00000
     53       2.3492      2.00000
     54       2.3666      2.00000
     55       2.7600      2.00000
     56       2.8021      2.00000
     57       2.8160      2.00000
     58       2.8815      2.00000
     59       3.4325      2.00000
     60       3.7358      2.00000
     61       4.1713      2.00000
     62       5.6347     -0.07019
     63       7.4976      0.00000
     64       7.6225      0.00000
     65       8.0548      0.00000
     66       8.1056      0.00000
     67       8.1334      0.00000
     68       8.8252      0.00000
     69       8.8303      0.00000
     70       9.1425      0.00000
     71       9.2275      0.00000
     72       9.6870      0.00000
     73       9.7419      0.00000
     74       9.7699      0.00000
     75      10.0267      0.00000
     76      10.7241      0.00000
     77      10.7989      0.00000
     78      11.2539      0.00000
     79      11.5787      0.00000
     80      11.6306      0.00000
     81      11.9482      0.00000
     82      12.3551      0.00000
     83      12.8294      0.00000
     84      13.5186      0.00000
     85      13.6628      0.00000
     86      14.2205      0.00000
     87      14.2573      0.00000
     88      14.3062      0.00000
     89      14.3818      0.00000
     90      14.6044      0.00000
     91      15.1882      0.00000
     92      15.7549      0.00000
     93      15.7602      0.00000
     94      15.7983      0.00000
     95      16.0836      0.00000
     96      16.4561      0.00000
     97      17.0174      0.00000
     98      17.1146      0.00000
     99      17.1259      0.00000
    100      17.8078      0.00000
    101      17.8680      0.00000
    102      18.1334      0.00000
    103      18.5327      0.00000
    104      18.7870      0.00000
    105      19.0416      0.00000
    106      19.0982      0.00000
    107      19.1316      0.00000
    108      19.2083      0.00000
    109      19.5235      0.00000
    110      19.5722      0.00000
    111      19.6637      0.00000
    112      19.6691      0.00000
    113      19.8922      0.00000
    114      19.8980      0.00000
    115      19.9007      0.00000
    116      20.0879      0.00000
    117      20.3252      0.00000
    118      20.9472      0.00000
    119      20.9844      0.00000
    120      21.2476      0.00000
    121      21.9347      0.00000
    122      22.1555      0.00000
    123      22.8083      0.00000
    124      23.4022      0.00000
    125      23.4706      0.00000
    126      24.0107      0.00000
    127      24.6772      0.00000
    128      24.7491      0.00000
    129      24.7520      0.00000
    130      24.7823      0.00000
    131      25.0555      0.00000
    132      25.5407      0.00000
    133      25.5497      0.00000
    134      25.9440      0.00000
    135      26.0936      0.00000
    136      26.1024      0.00000
    137      26.4146      0.00000
    138      26.4500      0.00000
    139      26.5519      0.00000
    140      26.5645      0.00000
    141      27.0228      0.00000
    142      27.2365      0.00000
    143      27.3604      0.00000
    144      27.4494      0.00000
    145      27.6220      0.00000
    146      27.6255      0.00000
    147      27.8211      0.00000
    148      27.9398      0.00000
    149      28.2165      0.00000
    150      28.2649      0.00000
    151      28.3933      0.00000
    152      28.6207      0.00000
    153      29.8042      0.00000
    154      31.1764      0.00000
    155      31.1947      0.00000
    156      31.5991      0.00000
    157      31.6219      0.00000
    158      32.1395      0.00000
    159      32.2287      0.00000
    160      32.5306      0.00000

 k-point   3 :       0.0000    0.0000    0.0526
  band No.  band energies     occupation 
      1     -26.2451      2.00000
      2     -26.2408      2.00000
      3     -26.2312      2.00000
      4     -26.2268      2.00000
      5     -26.2082      2.00000
      6     -26.2071      2.00000
      7     -19.6277      2.00000
      8     -19.3606      2.00000
      9     -19.3591      2.00000
     10     -19.3265      2.00000
     11     -18.0502      2.00000
     12     -17.9392      2.00000
     13     -14.4921      2.00000
     14     -14.2018      2.00000
     15     -14.2014      2.00000
     16     -14.0094      2.00000
     17     -12.2396      2.00000
     18     -12.1650      2.00000
     19     -12.1649      2.00000
     20     -12.0734      2.00000
     21      -6.8621      2.00000
     22      -6.3006      2.00000
     23      -6.2772      2.00000
     24      -5.9144      2.00000
     25      -5.7689      2.00000
     26      -4.8740      2.00000
     27      -4.7261      2.00000
     28      -4.6375      2.00000
     29      -4.4128      2.00000
     30      -3.8065      2.00000
     31      -3.5955      2.00000
     32      -2.9863      2.00000
     33      -2.7432      2.00000
     34      -2.7055      2.00000
     35      -2.3426      2.00000
     36      -2.3087      2.00000
     37      -2.2474      2.00000
     38      -1.8438      2.00000
     39      -1.7744      2.00000
     40      -1.4513      2.00000
     41      -1.1540      2.00000
     42      -0.7379      2.00000
     43      -0.5896      2.00000
     44      -0.4667      2.00000
     45      -0.2864      2.00000
     46       0.1270      2.00000
     47       0.4561      2.00000
     48       0.4597      2.00000
     49       0.5356      2.00000
     50       1.4177      2.00000
     51       1.4665      2.00000
     52       2.0635      2.00000
     53       2.1867      2.00000
     54       2.2970      2.00000
     55       2.6750      2.00000
     56       2.7473      2.00000
     57       2.9618      2.00000
     58       2.9795      2.00000
     59       3.6345      2.00000
     60       3.6803      2.00000
     61       4.2333      2.00000
     62       5.6630     -0.06851
     63       7.3658      0.00000
     64       7.6656      0.00000
     65       8.0864      0.00000
     66       8.1021      0.00000
     67       8.1582      0.00000
     68       8.8025      0.00000
     69       8.8132      0.00000
     70       9.1207      0.00000
     71       9.1956      0.00000
     72       9.6584      0.00000
     73       9.7434      0.00000
     74       9.7684      0.00000
     75      10.0714      0.00000
     76      10.7758      0.00000
     77      10.8510      0.00000
     78      11.1916      0.00000
     79      11.5377      0.00000
     80      11.5899      0.00000
     81      11.9596      0.00000
     82      12.3831      0.00000
     83      12.8697      0.00000
     84      13.3397      0.00000
     85      13.6393      0.00000
     86      14.1391      0.00000
     87      14.2675      0.00000
     88      14.3056      0.00000
     89      14.3989      0.00000
     90      14.7203      0.00000
     91      15.2649      0.00000
     92      15.7549      0.00000
     93      15.7606      0.00000
     94      15.8366      0.00000
     95      16.1236      0.00000
     96      16.4700      0.00000
     97      17.0131      0.00000
     98      17.0648      0.00000
     99      17.1186      0.00000
    100      17.8296      0.00000
    101      17.8792      0.00000
    102      18.1451      0.00000
    103      18.4740      0.00000
    104      18.7391      0.00000
    105      19.0210      0.00000
    106      19.1654      0.00000
    107      19.1995      0.00000
    108      19.2307      0.00000
    109      19.4915      0.00000
    110      19.5372      0.00000
    111      19.6183      0.00000
    112      19.6280      0.00000
    113      19.7787      0.00000
    114      19.8250      0.00000
    115      19.8316      0.00000
    116      20.0622      0.00000
    117      20.4011      0.00000
    118      20.9650      0.00000
    119      20.9652      0.00000
    120      21.2856      0.00000
    121      21.9316      0.00000
    122      22.2191      0.00000
    123      22.8669      0.00000
    124      22.8869      0.00000
    125      23.4647      0.00000
    126      23.9123      0.00000
    127      24.6411      0.00000
    128      24.7932      0.00000
    129      24.7978      0.00000
    130      24.8046      0.00000
    131      25.4311      0.00000
    132      25.5430      0.00000
    133      25.5652      0.00000
    134      25.9837      0.00000
    135      26.1030      0.00000
    136      26.1895      0.00000
    137      26.3875      0.00000
    138      26.3971      0.00000
    139      26.4285      0.00000
    140      26.6274      0.00000
    141      26.8450      0.00000
    142      27.0674      0.00000
    143      27.3659      0.00000
    144      27.3909      0.00000
    145      27.5689      0.00000
    146      27.6748      0.00000
    147      28.0058      0.00000
    148      28.1654      0.00000
    149      28.2607      0.00000
    150      28.3252      0.00000
    151      28.6549      0.00000
    152      28.8597      0.00000
    153      29.9447      0.00000
    154      31.1322      0.00000
    155      31.2401      0.00000
    156      31.6448      0.00000
    157      31.6802      0.00000
    158      32.0454      0.00000
    159      32.1675      0.00000
    160      32.2701      0.00000

 k-point   4 :       0.0000    0.0000    0.0789
  band No.  band energies     occupation 
      1     -26.2444      2.00000
      2     -26.2401      2.00000
      3     -26.2307      2.00000
      4     -26.2263      2.00000
      5     -26.2111      2.00000
      6     -26.2101      2.00000
      7     -19.6027      2.00000
      8     -19.3371      2.00000
      9     -19.3356      2.00000
     10     -19.3017      2.00000
     11     -18.0490      2.00000
     12     -17.9373      2.00000
     13     -14.6141      2.00000
     14     -14.3600      2.00000
     15     -14.3600      2.00000
     16     -14.1735      2.00000
     17     -12.1353      2.00000
     18     -12.0136      2.00000
     19     -12.0129      2.00000
     20     -11.9180      2.00000
     21      -6.8960      2.00000
     22      -6.3692      2.00000
     23      -6.3457      2.00000
     24      -5.9700      2.00000
     25      -5.6888      2.00000
     26      -4.8292      2.00000
     27      -4.6837      2.00000
     28      -4.5731      2.00000
     29      -4.4091      2.00000
     30      -3.7733      2.00000
     31      -3.5626      2.00000
     32      -3.0752      2.00000
     33      -2.7741      2.00000
     34      -2.6798      2.00000
     35      -2.3702      2.00000
     36      -2.2900      2.00000
     37      -2.2490      2.00000
     38      -1.8454      2.00000
     39      -1.7585      2.00000
     40      -1.2858      2.00000
     41      -1.1895      2.00000
     42      -0.6433      2.00000
     43      -0.5917      2.00000
     44      -0.4625      2.00000
     45      -0.2164      2.00000
     46       0.2135      2.00000
     47       0.4172      2.00000
     48       0.4279      2.00000
     49       0.5154      2.00000
     50       1.3864      2.00000
     51       1.4319      2.00000
     52       1.8899      2.00000
     53       2.0122      2.00000
     54       2.1880      2.00000
     55       2.4535      2.00000
     56       2.7294      2.00000
     57       3.1321      2.00000
     58       3.1665      2.00000
     59       3.5908      2.00000
     60       3.8487      2.00000
     61       4.3308      2.00000
     62       5.7098     -0.05045
     63       7.2012      0.00000
     64       7.7349      0.00000
     65       8.0506      0.00000
     66       8.0553      0.00000
     67       8.2761      0.00000
     68       8.7655      0.00000
     69       8.7853      0.00000
     70       9.0855      0.00000
     71       9.1434      0.00000
     72       9.6113      0.00000
     73       9.7457      0.00000
     74       9.7663      0.00000
     75      10.1411      0.00000
     76      10.8606      0.00000
     77      10.9365      0.00000
     78      11.0936      0.00000
     79      11.4721      0.00000
     80      11.5245      0.00000
     81      11.9720      0.00000
     82      12.4312      0.00000
[...]
    130      25.6811      0.00000
    131      26.5311      0.00000
    132      26.5311      0.00000
    133      26.7450      0.00000
    134      26.7450      0.00000
    135      27.9156      0.00000
    136      27.9156      0.00000
    137      28.1864      0.00000
    138      28.1864      0.00000
    139      28.5267      0.00000
    140      28.5267      0.00000
    141      29.0143      0.00000
    142      29.0144      0.00000
    143      29.3564      0.00000
    144      29.3564      0.00000
    145      29.3739      0.00000
    146      29.3739      0.00000
    147      29.5464      0.00000
    148      29.5464      0.00000
    149      30.3467      0.00000
    150      30.3468      0.00000
    151      30.3674      0.00000
    152      30.3674      0.00000
    153      30.4830      0.00000
    154      30.4831      0.00000
    155      31.3560      0.00000
    156      31.3602      0.00000
    157      31.6332      0.00000
    158      31.6347      0.00000
    159      31.8194      0.00000
    160      31.8527      0.00000

 k-point 140 :      -0.5000    0.5000    0.5000
  band No.  band energies     occupation 
      1     -26.2935      2.00000
      2     -26.2935      2.00000
      3     -26.2212      2.00000
      4     -26.2212      2.00000
      5     -26.2169      2.00000
      6     -26.2169      2.00000
      7     -18.1584      2.00000
      8     -18.1583      2.00000
      9     -17.7794      2.00000
     10     -17.7793      2.00000
     11     -17.7117      2.00000
     12     -17.7117      2.00000
     13     -17.6378      2.00000
     14     -17.6378      2.00000
     15     -17.5373      2.00000
     16     -17.5373      2.00000
     17      -9.0747      2.00000
     18      -9.0747      2.00000
     19      -8.8818      2.00000
     20      -8.8818      2.00000
     21      -8.8691      2.00000
     22      -8.8691      2.00000
     23      -8.8194      2.00000
     24      -8.8194      2.00000
     25      -4.4796      2.00000
     26      -4.4796      2.00000
     27      -2.9120      2.00000
     28      -2.9120      2.00000
     29      -2.4818      2.00000
     30      -2.4818      2.00000
     31      -2.0809      2.00000
     32      -2.0808      2.00000
     33      -2.0692      2.00000
     34      -2.0692      2.00000
     35      -1.7774      2.00000
     36      -1.7774      2.00000
     37      -1.6727      2.00000
     38      -1.6727      2.00000
     39      -1.4622      2.00000
     40      -1.4622      2.00000
     41      -1.1885      2.00000
     42      -1.1885      2.00000
     43      -0.5020      2.00000
     44      -0.5019      2.00000
     45      -0.3128      2.00000
     46      -0.3127      2.00000
     47      -0.1834      2.00000
     48      -0.1834      2.00000
     49       0.3187      2.00000
     50       0.3187      2.00000
     51       0.3301      2.00000
     52       0.3301      2.00000
     53       0.5340      2.00000
     54       0.5340      2.00000
     55       1.2720      2.00000
     56       1.2720      2.00000
     57       4.3748      2.00000
     58       4.3748      2.00000
     59       6.0350     -0.00007
     60       6.0350     -0.00007
     61       6.0504     -0.00004
     62       6.0504     -0.00004
     63       6.5818      0.00000
     64       6.5818      0.00000
     65       7.6971      0.00000
     66       7.6971      0.00000
     67       7.7161      0.00000
     68       7.7162      0.00000
     69       7.9748      0.00000
     70       7.9748      0.00000
     71       9.5817      0.00000
     72       9.5817      0.00000
     73       9.6964      0.00000
     74       9.6964      0.00000
     75       9.6987      0.00000
     76       9.6987      0.00000
     77       9.9512      0.00000
     78       9.9512      0.00000
     79      11.6501      0.00000
     80      11.6501      0.00000
     81      12.6042      0.00000
     82      12.6042      0.00000
     83      13.5013      0.00000
     84      13.5013      0.00000
     85      13.5404      0.00000
     86      13.5404      0.00000
     87      15.0285      0.00000
     88      15.0285      0.00000
     89      15.3984      0.00000
     90      15.3984      0.00000
     91      15.4190      0.00000
     92      15.4190      0.00000
     93      15.5653      0.00000
     94      15.5653      0.00000
     95      15.7581      0.00000
     96      15.7581      0.00000
     97      16.0325      0.00000
     98      16.0325      0.00000
     99      16.4113      0.00000
    100      16.4113      0.00000
    101      17.2519      0.00000
    102      17.2519      0.00000
    103      17.3055      0.00000
    104      17.3055      0.00000
    105      18.0759      0.00000
    106      18.0759      0.00000
    107      18.5069      0.00000
    108      18.5069      0.00000
    109      18.6650      0.00000
    110      18.6650      0.00000
    111      18.9950      0.00000
    112      18.9950      0.00000
    113      19.6206      0.00000
    114      19.6206      0.00000
    115      20.2197      0.00000
    116      20.2197      0.00000
    117      20.3330      0.00000
    118      20.3330      0.00000
    119      22.0993      0.00000
    120      22.0993      0.00000
    121      22.5821      0.00000
    122      22.5821      0.00000
    123      22.6147      0.00000
    124      22.6147      0.00000
    125      23.1906      0.00000
    126      23.1907      0.00000
    127      23.5400      0.00000
    128      23.5400      0.00000
    129      25.6918      0.00000
    130      25.6918      0.00000
    131      26.5427      0.00000
    132      26.5427      0.00000
    133      26.7399      0.00000
    134      26.7399      0.00000
    135      27.9140      0.00000
    136      27.9140      0.00000
    137      28.1841      0.00000
    138      28.1841      0.00000
    139      28.5302      0.00000
    140      28.5302      0.00000
    141      29.0030      0.00000
    142      29.0030      0.00000
    143      29.3548      0.00000
    144      29.3548      0.00000
    145      29.3687      0.00000
    146      29.3687      0.00000
    147      29.5548      0.00000
    148      29.5548      0.00000
    149      30.3368      0.00000
    150      30.3368      0.00000
    151      30.3798      0.00000
    152      30.3799      0.00000
    153      30.4681      0.00000
    154      30.4681      0.00000
    155      31.3528      0.00000
    156      31.3531      0.00000
    157      31.6240      0.00000
    158      31.6293      0.00000
    159      31.8162      0.00000
    160      31.8195      0.00000


--------------------------------------------------------------------------------------------------------


 soft charge-density along one line, spin component           1
         0         1         2         3         4         5         6         7         8         9
 total charge-density along one line
 
 pseudopotential strength for first ion, spin component:           1
-28.817   0.000   0.000  -0.281   0.000   0.000   0.000   0.000
  0.000 -28.824   0.000   0.000  -0.281   0.000   0.000   0.000
  0.000   0.000 -28.816   0.000   0.000  -0.281   0.000   0.000
 -0.281   0.000   0.000  -0.890   0.000   0.000   0.000   0.000
  0.000  -0.281   0.000   0.000  -0.890   0.000   0.000   0.000
  0.000   0.000  -0.281   0.000   0.000  -0.890   0.000   0.000
  0.000   0.000   0.000   0.000   0.000   0.000  -5.485   0.000
  0.000   0.000   0.000   0.000   0.000   0.000   0.000  -5.485
  0.000   0.000   0.000   0.000   0.000   0.000   0.000   0.000
  0.000   0.000   0.000   0.000   0.000   0.000   0.000   0.000
  0.000   0.000   0.000   0.000   0.000   0.000   0.000   0.000
  0.000   0.000   0.000   0.000   0.000   0.000   0.043   0.000
  0.000   0.000   0.000   0.000   0.000   0.000   0.000   0.043
  0.000   0.000   0.000   0.000   0.000   0.000   0.000   0.000
  0.000   0.000   0.000   0.000   0.000   0.000   0.000   0.000
  0.000   0.000   0.000   0.000   0.000   0.000   0.000   0.000
  0.000   0.000   0.000   0.000   0.000   0.000   0.000   0.000
  0.000   0.000   0.000   0.000   0.000   0.000   0.000   0.000
 total augmentation occupancy for first ion, spin component:           1
  2.000   0.000   0.000   0.000   0.000   0.000   0.000   0.000   0.000   0.000   0.000   0.000   0.000   0.000   0.000   0.000
  0.000   2.000   0.000   0.000   0.000   0.000   0.000   0.000   0.000   0.000   0.000   0.000   0.000   0.000   0.000   0.000
  0.000   0.000   2.000   0.000   0.000   0.000   0.000   0.000   0.000   0.000   0.000   0.000   0.000   0.000   0.000   0.000
  0.000   0.000   0.000   0.000   0.000   0.000   0.000   0.000   0.000   0.000   0.000   0.000   0.000   0.000   0.000   0.000
  0.000   0.000   0.000   0.000   0.000   0.000   0.000   0.000   0.000   0.000   0.000   0.000   0.000   0.000   0.000   0.000
  0.000   0.000   0.000   0.000   0.000   0.000   0.000   0.000   0.000   0.000   0.000   0.000   0.000   0.000   0.000   0.000
  0.000   0.000   0.000   0.000   0.000   0.000   0.600   0.000   0.000   0.000   0.000   0.000   0.000   0.000   0.000   0.000
  0.000   0.000   0.000   0.000   0.000   0.000   0.000   0.600   0.000   0.000   0.000   0.000   0.000   0.000   0.000   0.000
  0.000   0.000   0.000   0.000   0.000   0.000   0.000   0.000   0.600   0.000   0.000   0.000   0.000   0.000   0.000   0.000
  0.000   0.000   0.000   0.000   0.000   0.000   0.000   0.000   0.000   0.600   0.000   0.000   0.000   0.000   0.000   0.000
  0.000   0.000   0.000   0.000   0.000   0.000   0.000   0.000   0.000   0.000   0.600   0.000   0.000   0.000   0.000   0.000
  0.000   0.000   0.000   0.000   0.000   0.000   0.000   0.000   0.000   0.000   0.000   0.000   0.000   0.000   0.000   0.000
  0.000   0.000   0.000   0.000   0.000   0.000   0.000   0.000   0.000   0.000   0.000   0.000   0.000   0.000   0.000   0.000
  0.000   0.000   0.000   0.000   0.000   0.000   0.000   0.000   0.000   0.000   0.000   0.000   0.000   0.000   0.000   0.000
  0.000   0.000   0.000   0.000   0.000   0.000   0.000   0.000   0.000   0.000   0.000   0.000   0.000   0.000   0.000   0.000
  0.000   0.000   0.000   0.000   0.000   0.000   0.000   0.000   0.000   0.000   0.000   0.000   0.000   0.000   0.000   0.000
  0.000   0.000   0.000   0.000   0.000   0.000   0.000   0.000   0.000   0.000   0.000   0.000   0.000   0.000   0.000   0.000
  0.000   0.000   0.000   0.000   0.000   0.000   0.000   0.000   0.000   0.000   0.000   0.000   0.000   0.000   0.000   0.000


------------------------ aborting loop because EDIFF is reached ----------------------------------------


    CHARGE:  cpu time    3.13: real time    3.17
    FORLOC:  cpu time    0.01: real time    0.01
    FORNL :  cpu time   25.91: real time   25.98
    STRESS:  cpu time   39.93: real time   40.04
    FORCOR:  cpu time    0.08: real time    0.08
    FORHAR:  cpu time    0.03: real time    0.03

  FORCE on cell =-STRESS in cart. coord.  units (eV):
  Direction    XX          YY          ZZ          XY          YZ          ZX
  --------------------------------------------------------------------------------------
  Alpha Z   465.63813   465.63813   465.63813
  Ewald   -2571.75918 -2683.70563  -361.74706     0.00000     0.00004     0.00000
  Hartree   296.72886   238.62480  1087.79418     0.00000     0.00000     0.00000
  E(xc)    -509.82182  -510.16542  -503.01082     0.00000     0.00000     0.00000
  Local     326.66365   491.34984 -2440.32040     0.00000    -0.00002     0.00000
  n-local  -327.63719  -326.78250  -345.94159     0.00000     0.00000     0.00000
  augment    52.75266    52.77627    48.52088     0.00000     0.00000     0.00000
  Kinetic  2264.90411  2268.74427  2045.00311     0.00000    -0.00001     0.00000
  Fock        0.00000     0.00000     0.00000     0.00000     0.00000     0.00000
  -------------------------------------------------------------------------------------
  Total      -2.53079    -3.52025    -4.06356     0.00000     0.00000     0.00000
  in kB     -19.43806   -27.03773   -31.21067     0.00000     0.00000     0.00000
  external pressure =      -25.90 kB  Pullay stress =        0.00 kB


 VOLUME and BASIS-vectors are now :
 -----------------------------------------------------------------------------
  energy-cutoff  :      600.00
  volume of cell :      208.60
      direct lattice vectors                 reciprocal lattice vectors
     7.473438017  0.000000000  0.000000000     0.133807225  0.000000000  0.000000000
     0.000000000  7.432578968  0.000000000     0.000000000  0.134542802  0.000000000
     0.000000000  0.000000000  3.755379922     0.000000000  0.000000000  0.266284643

  length of vectors
     7.473438017  7.432578968  3.755379922     0.133807225  0.134542802  0.266284643


 FORCES acting on ions
    electron-ion (+dipol)            ewald-force                    non-local-force                 convergence-correction
 -----------------------------------------------------------------------------------------------
   0.798E-13 0.204E-06 0.168E-01   0.339E-14 -.497E-05 -.196E-01   -.414E-24 0.662E-23 -.185E-02   -.990E-12 0.468E-05 0.347E-02
   -.806E-14 0.939E-07 0.168E-01   0.730E-14 -.226E-05 -.196E-01   0.000E+00 -.993E-23 -.185E-02   -.107E-11 0.434E-06 0.348E-02
   -.716E+02 0.622E+02 -.479E+02   0.906E+02 -.803E+02 0.649E+02   -.174E+02 0.165E+02 -.165E+02   -.169E+01 0.170E+01 -.332E+00
   0.716E+02 -.622E+02 -.479E+02   -.906E+02 0.803E+02 0.649E+02   0.174E+02 -.165E+02 -.165E+02   0.169E+01 -.170E+01 -.332E+00
   -.716E+02 -.622E+02 -.479E+02   0.906E+02 0.803E+02 0.649E+02   -.174E+02 -.165E+02 -.165E+02   -.169E+01 -.170E+01 -.332E+00
   0.716E+02 0.622E+02 -.479E+02   -.906E+02 -.803E+02 0.649E+02   0.174E+02 0.165E+02 -.165E+02   0.169E+01 0.170E+01 -.332E+00
   -.716E+02 0.622E+02 -.479E+02   0.906E+02 -.803E+02 0.649E+02   -.174E+02 0.165E+02 -.165E+02   -.169E+01 0.170E+01 -.332E+00
   0.716E+02 -.622E+02 -.479E+02   -.906E+02 0.803E+02 0.649E+02   0.174E+02 -.165E+02 -.165E+02   0.169E+01 -.170E+01 -.332E+00
   -.716E+02 -.622E+02 -.479E+02   0.906E+02 0.803E+02 0.649E+02   -.174E+02 -.165E+02 -.165E+02   -.169E+01 -.170E+01 -.332E+00
   0.716E+02 0.622E+02 -.479E+02   -.906E+02 -.803E+02 0.649E+02   0.174E+02 0.165E+02 -.165E+02   0.169E+01 0.170E+01 -.332E+00
   -.716E+02 0.621E+02 0.479E+02   0.906E+02 -.803E+02 -.649E+02   -.174E+02 0.165E+02 0.165E+02   -.169E+01 0.169E+01 0.331E+00
   0.716E+02 -.621E+02 0.479E+02   -.906E+02 0.803E+02 -.649E+02   0.174E+02 -.165E+02 0.165E+02   0.169E+01 -.169E+01 0.331E+00
   -.716E+02 -.621E+02 0.479E+02   0.906E+02 0.803E+02 -.649E+02   -.174E+02 -.165E+02 0.165E+02   -.169E+01 -.169E+01 0.331E+00
   0.716E+02 0.621E+02 0.479E+02   -.906E+02 -.803E+02 -.649E+02   0.174E+02 0.165E+02 0.165E+02   0.169E+01 0.169E+01 0.331E+00
   -.716E+02 0.621E+02 0.479E+02   0.906E+02 -.803E+02 -.649E+02   -.174E+02 0.165E+02 0.165E+02   -.169E+01 0.169E+01 0.331E+00
   0.716E+02 -.621E+02 0.479E+02   -.906E+02 0.803E+02 -.649E+02   0.174E+02 -.165E+02 0.165E+02   0.169E+01 -.169E+01 0.331E+00
   -.716E+02 -.621E+02 0.479E+02   0.906E+02 0.803E+02 -.649E+02   -.174E+02 -.165E+02 0.165E+02   -.169E+01 -.169E+01 0.331E+00
   0.716E+02 0.621E+02 0.479E+02   -.906E+02 -.803E+02 -.649E+02   0.174E+02 0.165E+02 0.165E+02   0.169E+01 0.169E+01 0.331E+00
   -.992E-15 0.246E-06 -.200E+03   -.163E-13 -.595E-05 0.247E+03   -.517E-25 0.000E+00 -.463E+02   0.139E-11 0.565E-05 -.165E-01
   0.143E-12 -.271E-07 -.200E+03   -.121E-13 0.645E-06 0.247E+03   0.000E+00 0.000E+00 -.463E+02   -.502E-12 -.688E-06 -.162E-01
   -.482E-15 0.172E-06 0.200E+03   0.400E-13 -.418E-05 -.247E+03   0.000E+00 0.000E+00 0.463E+02   0.248E-11 0.410E-05 0.166E-01
   0.111E-12 -.122E-07 0.200E+03   -.329E-13 0.277E-06 -.247E+03   0.000E+00 0.000E+00 0.463E+02   0.298E-12 -.393E-06 0.156E-01
 -----------------------------------------------------------------------------------------------
   0.621E-11 0.174E-03 0.146E-01   0.639E-13 0.817E-13 -.853E-13   0.355E-14 -.711E-14 -.111E-01   -.387E-11 -.695E-04 -.154E-02
 
 
 POSITION                                       TOTAL-FORCE (eV/Angst)
 -----------------------------------------------------------------------------------
      3.73672      3.71629      2.70696         0.000000      0.000000     -0.001273
      0.00000      0.00000      0.82927         0.000000      0.000000     -0.001273
      6.04957      1.43082      3.36978        -0.051192      0.068376      0.219799
      1.42386      6.00176      3.36978         0.051192     -0.068376      0.219799
      6.04957      6.00176      3.36978        -0.051192     -0.068376      0.219799
      1.42386      1.43082      3.36978         0.051192      0.068376      0.219799
      2.31285      5.14711      1.49209        -0.051192      0.068376      0.219799
      5.16058      2.28547      1.49209         0.051192     -0.068376      0.219799
      2.31285      2.28547      1.49209        -0.051192     -0.068376      0.219799
      5.16058      5.14711      1.49209         0.051192      0.068376      0.219799
      6.04966      1.43089      2.04393        -0.051189      0.068133     -0.219544
      1.42378      6.00168      2.04393         0.051189     -0.068133     -0.219544
      6.04966      6.00168      2.04393        -0.051189     -0.068133     -0.219544
      1.42378      1.43089      2.04393         0.051189      0.068133     -0.219544
      2.31294      5.14718      0.16624        -0.051189      0.068133     -0.219544
      5.16050      2.28539      0.16624         0.051189     -0.068133     -0.219544
      2.31294      2.28539      0.16624        -0.051189     -0.068133     -0.219544
      5.16050      5.14718      0.16624         0.051189      0.068133     -0.219544
      0.00000      3.71629      1.38441         0.000000      0.000000     -0.083834
      3.73672      0.00000      3.26210         0.000000      0.000000     -0.083834
      0.00000      3.71629      0.27110         0.000000      0.000000      0.084089
      3.73672      0.00000      2.14879         0.000000      0.000000      0.084089
 -----------------------------------------------------------------------------------
    total drift:                                0.000000      0.000105      0.001960


--------------------------------------------------------------------------------------------------------



  FREE ENERGIE OF THE ION-ELECTRON SYSTEM (eV)
  ---------------------------------------------------
  free  energy   TOTEN  =      -182.83223525 eV

  energy  without entropy=     -182.83677504  energy(sigma->0) =     -182.83374852
 


--------------------------------------------------------------------------------------------------------


    POTLOK:  cpu time    0.09: real time    0.11


--------------------------------------------------------------------------------------------------------


 writing wavefunctions
     LOOP+:  cpu time  751.02: real time  797.37
    4ORBIT:  cpu time    0.00: real time    0.00

 total amount of memory used by VASP on root node   508290. kBytes
========================================================================

   base      :      30000. kBytes
   nonl-proj :     142189. kBytes
   fftplans  :       5349. kBytes
   grid      :       8380. kBytes
   one-center:        171. kBytes
   wavefun   :     322201. kBytes
 
  
  
 General timing and accounting informations for this job:
 ========================================================
  
                  Total CPU time used (sec):      768.803
                            User time (sec):      764.208
                          System time (sec):        4.595
                         Elapsed time (sec):      835.288
  
                   Maximum memory used (kb):     1149916.
                   Average memory used (kb):           0.
  
                          Minor page faults:        18180
                          Major page faults:            0
                 Voluntary context switches:        66997
